# vtk DataFile Version 3.0
Flow field at step 100
ASCII
DATASET STRUCTURED_GRID
DIMENSIONS 200 100 1
POINTS 20000 float
0.005 0.005 0
0.015 0.005 0
0.025 0.005 0
0.035 0.005 0
0.045 0.005 0
0.055 0.005 0
0.065 0.005 0
0.075 0.005 0
0.085 0.005 0
0.095 0.005 0
0.105 0.005 0
0.115 0.005 0
0.125 0.005 0
0.135 0.005 0
0.145 0.005 0
0.155 0.005 0
0.165 0.005 0
0.175 0.005 0
0.185 0.005 0
0.195 0.005 0
0.205 0.005 0
0.215 0.005 0
0.225 0.005 0
0.235 0.005 0
0.245 0.005 0
0.255 0.005 0
0.265 0.005 0
0.275 0.005 0
0.285 0.005 0
0.295 0.005 0
0.305 0.005 0
0.315 0.005 0
0.325 0.005 0
0.335 0.005 0
0.345 0.005 0
0.355 0.005 0
0.365 0.005 0
0.375 0.005 0
0.385 0.005 0
0.395 0.005 0
0.405 0.005 0
0.415 0.005 0
0.425 0.005 0
0.435 0.005 0
0.445 0.005 0
0.455 0.005 0
0.465 0.005 0
0.475 0.005 0
0.485 0.005 0
0.495 0.005 0
0.505 0.005 0
0.515 0.005 0
0.525 0.005 0
0.535 0.005 0
0.545 0.005 0
0.555 0.005 0
0.565 0.005 0
0.575 0.005 0
0.585 0.005 0
0.595 0.005 0
0.605 0.005 0
0.615 0.005 0
0.625 0.005 0
0.635 0.005 0
0.645 0.005 0
0.655 0.005 0
0.665 0.005 0
0.675 0.005 0
0.685 0.005 0
0.695 0.005 0
0.705 0.005 0
0.715 0.005 0
0.725 0.005 0
0.735 0.005 0
0.745 0.005 0
0.755 0.005 0
0.765 0.005 0
0.775 0.005 0
0.785 0.005 0
0.795 0.005 0
0.805 0.005 0
0.815 0.005 0
0.825 0.005 0
0.835 0.005 0
0.845 0.005 0
0.855 0.005 0
0.865 0.005 0
0.875 0.005 0
0.885 0.005 0
0.895 0.005 0
0.905 0.005 0
0.915 0.005 0
0.925 0.005 0
0.935 0.005 0
0.945 0.005 0
0.955 0.005 0
0.965 0.005 0
0.975 0.005 0
0.985 0.005 0
0.995 0.005 0
1.005 0.005 0
1.015 0.005 0
1.025 0.005 0
1.035 0.005 0
1.045 0.005 0
1.055 0.005 0
1.065 0.005 0
1.075 0.005 0
1.085 0.005 0
1.095 0.005 0
1.105 0.005 0
1.115 0.005 0
1.125 0.005 0
1.135 0.005 0
1.145 0.005 0
1.155 0.005 0
1.165 0.005 0
1.175 0.005 0
1.185 0.005 0
1.195 0.005 0
1.205 0.005 0
1.215 0.005 0
1.225 0.005 0
1.235 0.005 0
1.245 0.005 0
1.255 0.005 0
1.265 0.005 0
1.275 0.005 0
1.285 0.005 0
1.295 0.005 0
1.305 0.005 0
1.315 0.005 0
1.325 0.005 0
1.335 0.005 0
1.345 0.005 0
1.355 0.005 0
1.365 0.005 0
1.375 0.005 0
1.385 0.005 0
1.395 0.005 0
1.405 0.005 0
1.415 0.005 0
1.425 0.005 0
1.435 0.005 0
1.445 0.005 0
1.455 0.005 0
1.465 0.005 0
1.475 0.005 0
1.485 0.005 0
1.495 0.005 0
1.505 0.005 0
1.515 0.005 0
1.525 0.005 0
1.535 0.005 0
1.545 0.005 0
1.555 0.005 0
1.565 0.005 0
1.575 0.005 0
1.585 0.005 0
1.595 0.005 0
1.605 0.005 0
1.615 0.005 0
1.625 0.005 0
1.635 0.005 0
1.645 0.005 0
1.655 0.005 0
1.665 0.005 0
1.675 0.005 0
1.685 0.005 0
1.695 0.005 0
1.705 0.005 0
1.715 0.005 0
1.725 0.005 0
1.735 0.005 0
1.745 0.005 0
1.755 0.005 0
1.765 0.005 0
1.775 0.005 0
1.785 0.005 0
1.795 0.005 0
1.805 0.005 0
1.815 0.005 0
1.825 0.005 0
1.835 0.005 0
1.845 0.005 0
1.855 0.005 0
1.865 0.005 0
1.875 0.005 0
1.885 0.005 0
1.895 0.005 0
1.905 0.005 0
1.915 0.005 0
1.925 0.005 0
1.935 0.005 0
1.945 0.005 0
1.955 0.005 0
1.965 0.005 0
1.975 0.005 0
1.985 0.005 0
1.995 0.005 0
0.005 0.015 0
0.015 0.015 0
0.025 0.015 0
0.035 0.015 0
0.045 0.015 0
0.055 0.015 0
0.065 0.015 0
0.075 0.015 0
0.085 0.015 0
0.095 0.015 0
0.105 0.015 0
0.115 0.015 0
0.125 0.015 0
0.135 0.015 0
0.145 0.015 0
0.155 0.015 0
0.165 0.015 0
0.175 0.015 0
0.185 0.015 0
0.195 0.015 0
0.205 0.015 0
0.215 0.015 0
0.225 0.015 0
0.235 0.015 0
0.245 0.015 0
0.255 0.015 0
0.265 0.015 0
0.275 0.015 0
0.285 0.015 0
0.295 0.015 0
0.305 0.015 0
0.315 0.015 0
0.325 0.015 0
0.335 0.015 0
0.345 0.015 0
0.355 0.015 0
0.365 0.015 0
0.375 0.015 0
0.385 0.015 0
0.395 0.015 0
0.405 0.015 0
0.415 0.015 0
0.425 0.015 0
0.435 0.015 0
0.445 0.015 0
0.455 0.015 0
0.465 0.015 0
0.475 0.015 0
0.485 0.015 0
0.495 0.015 0
0.505 0.015 0
0.515 0.015 0
0.525 0.015 0
0.535 0.015 0
0.545 0.015 0
0.555 0.015 0
0.565 0.015 0
0.575 0.015 0
0.585 0.015 0
0.595 0.015 0
0.605 0.015 0
0.615 0.015 0
0.625 0.015 0
0.635 0.015 0
0.645 0.015 0
0.655 0.015 0
0.665 0.015 0
0.675 0.015 0
0.685 0.015 0
0.695 0.015 0
0.705 0.015 0
0.715 0.015 0
0.725 0.015 0
0.735 0.015 0
0.745 0.015 0
0.755 0.015 0
0.765 0.015 0
0.775 0.015 0
0.785 0.015 0
0.795 0.015 0
0.805 0.015 0
0.815 0.015 0
0.825 0.015 0
0.835 0.015 0
0.845 0.015 0
0.855 0.015 0
0.865 0.015 0
0.875 0.015 0
0.885 0.015 0
0.895 0.015 0
0.905 0.015 0
0.915 0.015 0
0.925 0.015 0
0.935 0.015 0
0.945 0.015 0
0.955 0.015 0
0.965 0.015 0
0.975 0.015 0
0.985 0.015 0
0.995 0.015 0
1.005 0.015 0
1.015 0.015 0
1.025 0.015 0
1.035 0.015 0
1.045 0.015 0
1.055 0.015 0
1.065 0.015 0
1.075 0.015 0
1.085 0.015 0
1.095 0.015 0
1.105 0.015 0
1.115 0.015 0
1.125 0.015 0
1.135 0.015 0
1.145 0.015 0
1.155 0.015 0
1.165 0.015 0
1.175 0.015 0
1.185 0.015 0
1.195 0.015 0
1.205 0.015 0
1.215 0.015 0
1.225 0.015 0
1.235 0.015 0
1.245 0.015 0
1.255 0.015 0
1.265 0.015 0
1.275 0.015 0
1.285 0.015 0
1.295 0.015 0
1.305 0.015 0
1.315 0.015 0
1.325 0.015 0
1.335 0.015 0
1.345 0.015 0
1.355 0.015 0
1.365 0.015 0
1.375 0.015 0
1.385 0.015 0
1.395 0.015 0
1.405 0.015 0
1.415 0.015 0
1.425 0.015 0
1.435 0.015 0
1.445 0.015 0
1.455 0.015 0
1.465 0.015 0
1.475 0.015 0
1.485 0.015 0
1.495 0.015 0
1.505 0.015 0
1.515 0.015 0
1.525 0.015 0
1.535 0.015 0
1.545 0.015 0
1.555 0.015 0
1.565 0.015 0
1.575 0.015 0
1.585 0.015 0
1.595 0.015 0
1.605 0.015 0
1.615 0.015 0
1.625 0.015 0
1.635 0.015 0
1.645 0.015 0
1.655 0.015 0
1.665 0.015 0
1.675 0.015 0
1.685 0.015 0
1.695 0.015 0
1.705 0.015 0
1.715 0.015 0
1.725 0.015 0
1.735 0.015 0
1.745 0.015 0
1.755 0.015 0
1.765 0.015 0
1.775 0.015 0
1.785 0.015 0
1.795 0.015 0
1.805 0.015 0
1.815 0.015 0
1.825 0.015 0
1.835 0.015 0
1.845 0.015 0
1.855 0.015 0
1.865 0.015 0
1.875 0.015 0
1.885 0.015 0
1.895 0.015 0
1.905 0.015 0
1.915 0.015 0
1.925 0.015 0
1.935 0.015 0
1.945 0.015 0
1.955 0.015 0
1.965 0.015 0
1.975 0.015 0
1.985 0.015 0
1.995 0.015 0
0.005 0.025 0
0.015 0.025 0
0.025 0.025 0
0.035 0.025 0
0.045 0.025 0
0.055 0.025 0
0.065 0.025 0
0.075 0.025 0
0.085 0.025 0
0.095 0.025 0
0.105 0.025 0
0.115 0.025 0
0.125 0.025 0
0.135 0.025 0
0.145 0.025 0
0.155 0.025 0
0.165 0.025 0
0.175 0.025 0
0.185 0.025 0
0.195 0.025 0
0.205 0.025 0
0.215 0.025 0
0.225 0.025 0
0.235 0.025 0
0.245 0.025 0
0.255 0.025 0
0.265 0.025 0
0.275 0.025 0
0.285 0.025 0
0.295 0.025 0
0.305 0.025 0
0.315 0.025 0
0.325 0.025 0
0.335 0.025 0
0.345 0.025 0
0.355 0.025 0
0.365 0.025 0
0.375 0.025 0
0.385 0.025 0
0.395 0.025 0
0.405 0.025 0
0.415 0.025 0
0.425 0.025 0
0.435 0.025 0
0.445 0.025 0
0.455 0.025 0
0.465 0.025 0
0.475 0.025 0
0.485 0.025 0
0.495 0.025 0
0.505 0.025 0
0.515 0.025 0
0.525 0.025 0
0.535 0.025 0
0.545 0.025 0
0.555 0.025 0
0.565 0.025 0
0.575 0.025 0
0.585 0.025 0
0.595 0.025 0
0.605 0.025 0
0.615 0.025 0
0.625 0.025 0
0.635 0.025 0
0.645 0.025 0
0.655 0.025 0
0.665 0.025 0
0.675 0.025 0
0.685 0.025 0
0.695 0.025 0
0.705 0.025 0
0.715 0.025 0
0.725 0.025 0
0.735 0.025 0
0.745 0.025 0
0.755 0.025 0
0.765 0.025 0
0.775 0.025 0
0.785 0.025 0
0.795 0.025 0
0.805 0.025 0
0.815 0.025 0
0.825 0.025 0
0.835 0.025 0
0.845 0.025 0
0.855 0.025 0
0.865 0.025 0
0.875 0.025 0
0.885 0.025 0
0.895 0.025 0
0.905 0.025 0
0.915 0.025 0
0.925 0.025 0
0.935 0.025 0
0.945 0.025 0
0.955 0.025 0
0.965 0.025 0
0.975 0.025 0
0.985 0.025 0
0.995 0.025 0
1.005 0.025 0
1.015 0.025 0
1.025 0.025 0
1.035 0.025 0
1.045 0.025 0
1.055 0.025 0
1.065 0.025 0
1.075 0.025 0
1.085 0.025 0
1.095 0.025 0
1.105 0.025 0
1.115 0.025 0
1.125 0.025 0
1.135 0.025 0
1.145 0.025 0
1.155 0.025 0
1.165 0.025 0
1.175 0.025 0
1.185 0.025 0
1.195 0.025 0
1.205 0.025 0
1.215 0.025 0
1.225 0.025 0
1.235 0.025 0
1.245 0.025 0
1.255 0.025 0
1.265 0.025 0
1.275 0.025 0
1.285 0.025 0
1.295 0.025 0
1.305 0.025 0
1.315 0.025 0
1.325 0.025 0
1.335 0.025 0
1.345 0.025 0
1.355 0.025 0
1.365 0.025 0
1.375 0.025 0
1.385 0.025 0
1.395 0.025 0
1.405 0.025 0
1.415 0.025 0
1.425 0.025 0
1.435 0.025 0
1.445 0.025 0
1.455 0.025 0
1.465 0.025 0
1.475 0.025 0
1.485 0.025 0
1.495 0.025 0
1.505 0.025 0
1.515 0.025 0
1.525 0.025 0
1.535 0.025 0
1.545 0.025 0
1.555 0.025 0
1.565 0.025 0
1.575 0.025 0
1.585 0.025 0
1.595 0.025 0
1.605 0.025 0
1.615 0.025 0
1.625 0.025 0
1.635 0.025 0
1.645 0.025 0
1.655 0.025 0
1.665 0.025 0
1.675 0.025 0
1.685 0.025 0
1.695 0.025 0
1.705 0.025 0
1.715 0.025 0
1.725 0.025 0
1.735 0.025 0
1.745 0.025 0
1.755 0.025 0
1.765 0.025 0
1.775 0.025 0
1.785 0.025 0
1.795 0.025 0
1.805 0.025 0
1.815 0.025 0
1.825 0.025 0
1.835 0.025 0
1.845 0.025 0
1.855 0.025 0
1.865 0.025 0
1.875 0.025 0
1.885 0.025 0
1.895 0.025 0
1.905 0.025 0
1.915 0.025 0
1.925 0.025 0
1.935 0.025 0
1.945 0.025 0
1.955 0.025 0
1.965 0.025 0
1.975 0.025 0
1.985 0.025 0
1.995 0.025 0
0.005 0.035 0
0.015 0.035 0
0.025 0.035 0
0.035 0.035 0
0.045 0.035 0
0.055 0.035 0
0.065 0.035 0
0.075 0.035 0
0.085 0.035 0
0.095 0.035 0
0.105 0.035 0
0.115 0.035 0
0.125 0.035 0
0.135 0.035 0
0.145 0.035 0
0.155 0.035 0
0.165 0.035 0
0.175 0.035 0
0.185 0.035 0
0.195 0.035 0
0.205 0.035 0
0.215 0.035 0
0.225 0.035 0
0.235 0.035 0
0.245 0.035 0
0.255 0.035 0
0.265 0.035 0
0.275 0.035 0
0.285 0.035 0
0.295 0.035 0
0.305 0.035 0
0.315 0.035 0
0.325 0.035 0
0.335 0.035 0
0.345 0.035 0
0.355 0.035 0
0.365 0.035 0
0.375 0.035 0
0.385 0.035 0
0.395 0.035 0
0.405 0.035 0
0.415 0.035 0
0.425 0.035 0
0.435 0.035 0
0.445 0.035 0
0.455 0.035 0
0.465 0.035 0
0.475 0.035 0
0.485 0.035 0
0.495 0.035 0
0.505 0.035 0
0.515 0.035 0
0.525 0.035 0
0.535 0.035 0
0.545 0.035 0
0.555 0.035 0
0.565 0.035 0
0.575 0.035 0
0.585 0.035 0
0.595 0.035 0
0.605 0.035 0
0.615 0.035 0
0.625 0.035 0
0.635 0.035 0
0.645 0.035 0
0.655 0.035 0
0.665 0.035 0
0.675 0.035 0
0.685 0.035 0
0.695 0.035 0
0.705 0.035 0
0.715 0.035 0
0.725 0.035 0
0.735 0.035 0
0.745 0.035 0
0.755 0.035 0
0.765 0.035 0
0.775 0.035 0
0.785 0.035 0
0.795 0.035 0
0.805 0.035 0
0.815 0.035 0
0.825 0.035 0
0.835 0.035 0
0.845 0.035 0
0.855 0.035 0
0.865 0.035 0
0.875 0.035 0
0.885 0.035 0
0.895 0.035 0
0.905 0.035 0
0.915 0.035 0
0.925 0.035 0
0.935 0.035 0
0.945 0.035 0
0.955 0.035 0
0.965 0.035 0
0.975 0.035 0
0.985 0.035 0
0.995 0.035 0
1.005 0.035 0
1.015 0.035 0
1.025 0.035 0
1.035 0.035 0
1.045 0.035 0
[...]
POINT_DATA 20000
VECTORS velocity float
1 -2.60076e-18 0
1 -3.40803e-18 0
1 -1.66806e-17 0
1 -3.08624e-17 0
1 -1.79182e-16 0
1 -3.35091e-16 0
1 -1.35674e-15 0
1 -2.54776e-15 0
1 -9.54542e-15 0
1 -1.76437e-14 0
1 -5.9851e-14 0
1 -1.06896e-13 0
1 -3.3485e-13 0
1 -5.7896e-13 0
1 -1.67856e-12 0
1 -2.8129e-12 0
1 -7.57813e-12 0
1 -1.23164e-11 0
1 -3.09517e-11 0
1 -4.88062e-11 0
1 -1.14818e-10 0
1 -1.75704e-10 0
1 -3.88217e-10 0
1 -5.76638e-10 0
1 -1.20021e-09 0
1 -1.73061e-09 0
1 -3.40263e-09 0
1 -4.76331e-09 0
1 -8.86916e-09 0
1 -1.20547e-08 0
1 -2.13053e-08 0
1 -2.81165e-08 0
1 -4.72667e-08 0
1 -6.05697e-08 0
1 -9.70306e-08 0
1 -1.20742e-07 0
1 -1.84615e-07 0
1 -2.23095e-07 0
1 -3.26016e-07 0
1 -3.82599e-07 0
0.999999 -5.34931e-07 0
0.999999 -6.09634e-07 0
0.999999 -8.16143e-07 0
0.999999 -9.03099e-07 0
0.999999 -1.15815e-06 0
0.999999 -1.24386e-06 0
0.999999 -1.5281e-06 0
0.999999 -1.59175e-06 0
0.999999 -1.87246e-06 0
0.999999 -1.88918e-06 0
1 -2.1256e-06 0
1 -2.07231e-06 0
1 -2.22546e-06 0
1 -2.08782e-06 0
1 -2.13203e-06 0
1 -1.91003e-06 0
1 -1.84201e-06 0
1 -1.55195e-06 0
1 -1.39362e-06 0
1 -1.0654e-06 0
1 -8.58794e-07 0
1 -5.29157e-07 0
1 -3.24798e-07 0
1 -2.87374e-08 0
1 1.284e-07 0
1 3.6528e-07 0
1 4.47214e-07 0
1 6.13081e-07 0
1 6.139e-07 0
1 7.10879e-07 0
1 6.44418e-07 0
1 6.85173e-07 0
1 5.77199e-07 0
1 5.79582e-07 0
1 4.5816e-07 0
1 4.39922e-07 0
1 3.27585e-07 0
1 3.02674e-07 0
1 2.12534e-07 0
1 1.89596e-07 0
1 1.25464e-07 0
1 1.0826e-07 0
1 6.73917e-08 0
1 5.63057e-08 0
1 3.2878e-08 0
1 2.6614e-08 0
1 1.45223e-08 0
1 1.13939e-08 0
1 5.7825e-09 0
1 4.39869e-09 0
1 2.06441e-09 0
1 1.52301e-09 0
1 6.56525e-10 0
1 4.69882e-10 0
1 1.8456e-10 0
1 1.28179e-10 0
1 4.54443e-11 0
1 3.06324e-11 0
1 9.69445e-12 0
1 6.34258e-12 0
1 1.76796e-12 0
1 1.12248e-12 0
1 2.71086e-13 0
1 1.66933e-13 0
1 3.42012e-14 0
1 2.04097e-14 0
1 3.43458e-15 0
1 2.0129e-15 0
1 2.59186e-16 0
1 1.60699e-16 0
1 9.98026e-18 0
1 1.69037e-17 0
1 8.15308e-20 0
1 1.8378e-17 0
1 3.3486e-22 0
1 2.87145e-17 0
1 0 0
1 0 0
1 0 0
1 0 0
1 0 0
1 0 0
1 0 0
1 0 0
1 0 0
1 0 0
1 0 0
1 0 0
1 0 0
1 0 0
1 0 0
1 0 0
1 0 0
1 0 0
1 0 0
1 0 0
1 0 0
1 0 0
1 0 0
1 0 0
1 0 0
1 0 0
1 0 0
1 0 0
1 0 0
1 0 0
1 0 0
1 0 0
1 0 0
1 0 0
1 0 0
1 0 0
1 0 0
1 0 0
1 0 0
1 0 0
1 0 0
1 0 0
1 0 0
1 0 0
1 0 0
1 0 0
1 0 0
1 0 0
1 0 0
1 0 0
1 0 0
1 0 0
1 0 0
1 0 0
1 0 0
1 0 0
1 0 0
1 0 0
1 0 0
1 0 0
1 0 0
1 0 0
1 0 0
1 0 0
1 0 0
1 0 0
1 0 0
1 0 0
1 0 0
1 0 0
1 0 0
1 0 0
1 0 0
1 0 0
1 0 0
1 0 0
1 0 0
1 0 0
1 0 0
1 0 0
1 0 0
1 0 0
1 0 0
1 0 0
1 -5.28864e-18 0
1 -1.92788e-17 0
1 -4.49671e-17 0
1 -1.9477e-16 0
1 -5.38427e-16 0
1 -1.76688e-15 0
1 -4.08782e-15 0
1 -1.29818e-14 0
1 -2.89637e-14 0
1 -8.52715e-14 0
1 -1.82276e-13 0
1 -4.99831e-13 0
1 -1.02356e-12 0
1 -2.62414e-12 0
1 -5.15179e-12 0
1 -1.23933e-11 0
1 -2.33537e-11 0
1 -5.28882e-11 0
1 -9.57595e-11 0
1 -2.04753e-10 0
1 -3.56544e-10 0
1 -7.21697e-10 0
1 -1.20966e-09 0
1 -2.32351e-09 0
1 -3.75155e-09 0
1 -6.85289e-09 0
1 -1.0666e-08 0
1 -1.85656e-08 0
1 -2.78726e-08 0
1 -4.63135e-08 0
1 -6.71077e-08 0
1 -1.06618e-07 0
1 -1.49185e-07 0
1 -2.26954e-07 0
1 -3.06818e-07 0
1 -4.47509e-07 0
1 -5.8476e-07 0
1 -8.18618e-07 0
0.999999 -1.0343e-06 0
0.999999 -1.39099e-06 0
0.999999 -1.69979e-06 0
0.999999 -2.19753e-06 0
0.999999 -2.59754e-06 0
0.999999 -3.22959e-06 0
0.999999 -3.69224e-06 0
0.999999 -4.41532e-06 0
0.999999 -4.88032e-06 0
0.999999 -5.61131e-06 0
0.999999 -5.99125e-06 0
0.999999 -6.61734e-06 0
0.999999 -6.81396e-06 0
1 -7.21673e-06 0
1 -7.14623e-06 0
1 -7.23425e-06 0
1 -6.85383e-06 0
1 -6.5929e-06 0
1 -5.9189e-06 0
1 -5.34829e-06 0
1 -4.458e-06 0
1 -3.68482e-06 0
1 -2.69991e-06 0
1 -1.87222e-06 0
1 -9.28741e-07 0
1 -1.96131e-07 0
1 5.88952e-07 0
1 1.11353e-06 0
1 1.668e-06 0
1 1.93238e-06 0
1 2.23923e-06 0
1 2.25548e-06 0
1 2.34661e-06 0
1 2.17545e-06 0
1 2.1133e-06 0
1 1.83769e-06 0
1 1.69296e-06 0
1 1.39182e-06 0
1 1.22484e-06 0
1 9.55171e-07 0
1 8.05875e-07 0
1 5.96707e-07 0
1 4.83482e-07 0
1 3.39757e-07 0
1 2.64542e-07 0
1 1.76172e-07 0
1 1.31812e-07 0
1 8.29948e-08 0
1 5.96438e-08 0
1 3.53983e-08 0
1 2.44159e-08 0
1 1.36067e-08 0
1 8.99933e-09 0
1 4.6876e-09 0
1 2.96957e-09 0
1 1.43783e-09 0
1 8.7134e-10 0
1 3.89621e-10 0
1 2.25544e-10 0
1 9.24152e-11 0
1 5.1019e-11 0
1 1.89765e-11 0
1 9.97207e-12 0
1 3.32832e-12 0
1 1.66116e-12 0
1 4.90333e-13 0
1 2.3181e-13 0
1 5.93917e-14 0
1 2.65268e-14 0
1 5.74426e-15 0
1 2.44839e-15 0
1 4.24479e-16 0
1 1.91933e-16 0
1 2.61868e-17 0
1 2.75511e-17 0
1 1.84507e-17 0
1 2.87371e-17 0
1 2.87148e-17 0
1 2.87145e-17 0
1 0 0
1 0 0
1 0 0
1 0 0
1 0 0
1 0 0
1 0 0
1 0 0
1 0 0
1 0 0
1 0 0
1 0 0
1 0 0
1 0 0
1 0 0
1 0 0
1 0 0
1 0 0
1 0 0
1 0 0
1 0 0
1 0 0
1 0 0
1 0 0
1 0 0
1 0 0
1 0 0
1 0 0
1 0 0
1 0 0
1 0 0
1 0 0
1 0 0
1 0 0
1 0 0
1 0 0
1 0 0
1 0 0
1 0 0
1 0 0
1 0 0
1 0 0
1 0 0
1 0 0
1 0 0
1 0 0
1 0 0
1 0 0
1 0 0
1 0 0
1 0 0
1 0 0
1 0 0
1 0 0
1 0 0
1 0 0
1 0 0
1 0 0
1 0 0
1 0 0
1 0 0
1 0 0
1 0 0
1 0 0
1 0 0
1 0 0
1 0 0
1 0 0
1 0 0
1 0 0
1 0 0
1 0 0
1 0 0
1 0 0
1 0 0
1 0 0
1 0 0
1 0 0
1 0 0
1 0 0
1 0 0
1 0 0
1 0 0
1 -1.2481e-17 0
1 -4.01104e-17 0
1 -1.96132e-16 0
1 -4.58162e-16 0
1 -1.63996e-15 0
1 -3.92295e-15 0
1 -1.2411e-14 0
1 -2.87061e-14 0
1 -8.44537e-14 0
1 -1.86888e-13 0
1 -5.12872e-13 0
1 -1.08639e-12 0
1 -2.78855e-12 0
1 -5.65767e-12 0
1 -1.36338e-11 0
1 -2.6524e-11 0
1 -6.02045e-11 0
1 -1.12426e-10 0
1 -2.41066e-10 0
1 -4.32526e-10 0
1 -8.78413e-10 0
1 -1.51563e-09 0
1 -2.92234e-09 0
1 -4.8528e-09 0
1 -8.90257e-09 0
1 -1.42387e-08 0
1 -2.49016e-08 0
1 -3.83861e-08 0
1 -6.41115e-08 0
1 -9.53131e-08 0
1 -1.52271e-07 0
1 -2.18455e-07 0
1 -3.34315e-07 0
1 -4.6309e-07 0
1 -6.79742e-07 0
1 -9.09563e-07 0
0.999999 -1.28198e-06 0
0.999999 -1.6578e-06 0
0.999999 -2.24576e-06 0
0.999999 -2.8075e-06 0
0.999999 -3.6581e-06 0
0.999999 -4.42191e-06 0
0.999998 -5.54467e-06 0
0.999998 -6.48101e-06 0
0.999998 -7.82248e-06 0
0.999998 -8.83949e-06 0
0.999998 -1.02687e-05 0
0.999998 -1.12111e-05 0
0.999998 -1.25273e-05 0
0.999999 -1.31985e-05 0
0.999999 -1.4167e-05 0
0.999999 -1.43728e-05 0
1 -1.47829e-05 0
1 -1.43869e-05 0
1 -1.41159e-05 0
1 -1.30873e-05 0
1 -1.2146e-05 0
1 -1.0581e-05 0
1 -9.12383e-06 0
1 -7.23043e-06 0
1 -5.52064e-06 0
1 -3.56933e-06 0
1 -1.91162e-06 0
1 -1.68293e-07 0
1 1.16978e-06 0
1 2.50653e-06 0
1 3.3572e-06 0
1 4.19448e-06 0
1 4.51735e-06 0
1 4.87235e-06 0
1 4.74198e-06 0
1 4.71586e-06 0
0.999999 4.27934e-06 0
0.999999 4.0139e-06 0
0.999999 3.43749e-06 0
0.999999 3.07163e-06 0
0.999999 2.49564e-06 0
0.999999 2.13489e-06 0
0.999999 1.64902e-06 0
1 1.35373e-06 0
1 9.94364e-07 0
1 7.84177e-07 0
1 5.47278e-07 0
1 4.14702e-07 0
1 2.74504e-07 0
1 1.99806e-07 0
1 1.25127e-07 0
1 8.7432e-08 0
1 5.16361e-08 0
1 3.46061e-08 0
1 1.91989e-08 0
1 1.23284e-08 0
1 6.39499e-09 0
1 3.92997e-09 0
1 1.89549e-09 0
1 1.11332e-09 0
1 4.96017e-10 0
1 2.78044e-10 0
1 1.13535e-10 0
1 6.06405e-11 0
1 2.24801e-11 0
1 1.14199e-11 0
1 3.79882e-12 0
1 1.8317e-12 0
1 5.38761e-13 0
1 2.4598e-13 0
1 6.27873e-14 0
1 2.70792e-14 0
1 5.84783e-15 0
1 2.40685e-15 0
1 4.20685e-16 0
1 1.71907e-16 0
1 3.52951e-17 0
1 3.09208e-17 0
1 2.87994e-17 0
1 2.87329e-17 0
1 2.87147e-17 0
1 2.87145e-17 0
1 0 0
1 0 0
1 0 0
1 0 0
1 0 0
1 0 0
1 0 0
1 0 0
1 0 0
1 0 0
1 0 0
1 0 0
1 0 0
1 0 0
1 0 0
1 0 0
1 0 0
1 0 0
1 0 0
1 0 0
1 0 0
1 0 0
1 0 0
1 0 0
1 0 0
1 0 0
1 0 0
1 0 0
1 0 0
1 0 0
1 0 0
1 0 0
1 0 0
1 0 0
1 0 0
1 0 0
1 0 0
1 0 0
1 0 0
1 0 0
1 0 0
1 0 0
1 0 0
1 0 0
1 0 0
1 0 0
1 0 0
1 0 0
1 0 0
1 0 0
1 0 0
1 0 0
1 0 0
1 0 0
1 0 0
1 0 0
1 0 0
1 0 0
1 0 0
1 0 0
1 0 0
1 0 0
1 0 0
1 0 0
1 0 0
1 0 0
1 0 0
1 0 0
1 0 0
1 0 0
1 0 0
1 0 0
1 0 0
1 0 0
1 0 0
1 0 0
1 0 0
1 0 0
1 0 0
1 0 0
1 0 0
1 0 0
1 -2.6399e-17 0
1 -1.41305e-16 0
1 -3.94352e-16 0
1 -1.39052e-15 0
1 -3.45542e-15 0
1 -1.10386e-14 0
1 -2.61128e-14 0
1 -7.7811e-14 0
1 -1.75708e-13 0
1 -4.88076e-13 0
1 -1.05423e-12 0
1 -2.73959e-12 0
1 -5.66612e-12 0
1 -1.38237e-11 0
1 -2.74059e-11 0
1 -6.29774e-11 0
1 -1.19808e-10 0
1 -2.60072e-10 0
1 -4.75226e-10 0
1 -9.77044e-10 0
1 -1.71639e-09 0
1 -3.35012e-09 0
1 -5.66259e-09 0
1 -1.05154e-08 0
1 -1.71145e-08 0
1 -3.02959e-08 0
1 -4.75134e-08 0
1 -8.03193e-08 0
1 -1.21459e-07 0
1 -1.9639e-07 0
1 -2.86532e-07 0
1 -4.43794e-07 0
1 -6.25068e-07 0
1 -9.28584e-07 0
0.999999 -1.26323e-06 0
0.999999 -1.80205e-06 0
0.999999 -2.36888e-06 0
0.999999 -3.24824e-06 0
0.999998 -4.12767e-06 0
0.999998 -5.44487e-06 0
0.999998 -6.6903e-06 0
0.999997 -8.49521e-06 0
0.999997 -1.00946e-05 0
0.999997 -1.23432e-05 0
0.999996 -1.41828e-05 0
0.999996 -1.6701e-05 0
0.999996 -1.85492e-05 0
0.999997 -2.10277e-05 0
0.999997 -2.2555e-05 0
0.999997 -2.45915e-05 0
0.999998 -2.54328e-05 0
0.999999 -2.66196e-05 0
1 -2.64677e-05 0
1 -2.65036e-05 0
1 -2.52045e-05 0
1 -2.39946e-05 0
1 -2.16116e-05 0
1 -1.9316e-05 0
1 -1.61337e-05 0
1.00001 -1.31422e-05 0
1.00001 -9.60645e-06 0
1.00001 -6.44452e-06 0
1 -3.05347e-06 0
1 -2.47836e-07 0
1 2.56789e-06 0
1 4.61738e-06 0
1 6.58824e-06 0
1 7.6906e-06 0
1 8.7476e-06 0
1 8.93456e-06 0
1 9.18915e-06 0
0.999999 8.66542e-06 0
0.999999 8.34522e-06 0
0.999999 7.40115e-06 0
0.999999 6.76924e-06 0
0.999999 5.69034e-06 0
0.999999 4.97607e-06 0
0.999999 3.97818e-06 0
0.999999 3.33729e-06 0
0.999999 2.54015e-06 0
0.999999 2.04747e-06 0
0.999999 1.48328e-06 0
0.999999 1.14941e-06 0
1 7.91532e-07 0
1 5.89636e-07 0
1 3.852e-07 0
1 2.75714e-07 0
1 1.7041e-07 0
1 1.17111e-07 0
1 6.82517e-08 0
1 4.4992e-08 0
1 2.46252e-08 0
1 1.55541e-08 0
1 7.95707e-09 0
1 4.80978e-09 0
1 2.28701e-09 0
1 1.32117e-09 0
1 5.80052e-10 0
1 3.19763e-10 0
1 1.28616e-10 0
1 6.75463e-11 0
1 2.46556e-11 0
1 1.23127e-11 0
1 4.03149e-12 0
1 1.91032e-12 0
1 5.52887e-13 0
1 2.47988e-13 0
1 6.22443e-14 0
1 2.63645e-14 0
1 5.60858e-15 0
1 2.22776e-15 0
1 3.88816e-16 0
1 1.55978e-16 0
1 3.72068e-17 0
1 3.05188e-17 0
1 2.87849e-17 0
1 2.87289e-17 0
1 2.87147e-17 0
1 2.87145e-17 0
1 0 0
1 0 0
1 0 0
1 0 0
1 0 0
1 0 0
1 0 0
1 0 0
1 0 0
1 0 0
1 0 0
1 0 0
1 0 0
1 0 0
1 0 0
1 0 0
1 0 0
1 0 0
1 0 0
1 0 0
1 0 0
1 0 0
1 0 0
1 0 0
1 0 0
1 0 0
1 0 0
1 0 0
1 0 0
1 0 0
1 0 0
1 0 0
1 0 0
1 0 0
1 0 0
1 0 0
1 0 0
1 0 0
1 0 0
1 0 0
1 0 0
1 0 0
1 0 0
1 0 0
1 0 0
1 0 0
1 0 0
1 0 0
1 0 0
1 0 0
1 0 0
1 0 0
1 0 0
1 0 0
1 0 0
1 0 0
1 0 0
1 0 0
1 0 0
1 0 0
1 0 0
1 0 0
1 0 0
1 0 0
1 0 0
1 0 0
1 0 0
1 0 0
1 0 0
1 0 0
1 0 0
1 0 0
1 0 0
1 0 0
1 0 0
1 0 0
1 0 0
1 0 0
1 0 0
1 0 0
1 0 0
1 -1.00837e-16 0
1 -3.25059e-16 0
1 -1.15877e-15 0
1 -2.9284e-15 0
1 -9.47944e-15 0
1 -2.28878e-14 0
1 -6.9109e-14 0
1 -1.58904e-13 0
1 -4.47517e-13 0
1 -9.83509e-13 0
1 -2.5914e-12 0
1 -5.45103e-12 0
1 -1.34847e-11 0
1 -2.71806e-11 0
1 -6.33307e-11 0
1 -1.22456e-10 0
1 -2.69513e-10 0
1 -5.00417e-10 0
1 -1.04305e-09 0
1 -1.86144e-09 0
1 -3.68312e-09 0
1 -6.32292e-09 0
1 -1.19016e-08 0
1 -1.96702e-08 0
1 -3.52905e-08 0
1 -5.61927e-08 0
1 -9.6264e-08 0
1 -1.47775e-07 0
1 -2.42115e-07 0
1 -3.58546e-07 0
1 -5.62656e-07 0
1 -8.04284e-07 0
0.999999 -1.21049e-06 0
0.999999 -1.67112e-06 0
0.999999 -2.41507e-06 0
0.999998 -3.22154e-06 0
0.999998 -4.47516e-06 0
0.999998 -5.77054e-06 0
0.999997 -7.71199e-06 0
0.999996 -9.61593e-06 0
0.999996 -1.23724e-05 0
0.999995 -1.49206e-05 0
0.999994 -1.84915e-05 0
0.999994 -2.1569e-05 0
0.999994 -2.57535e-05 0
0.999994 -2.90483e-05 0
0.999994 -3.3411e-05 0
0.999994 -3.64195e-05 0
0.999995 -4.03267e-05 0
0.999996 -4.24296e-05 0
0.999997 -4.51666e-05 0
0.999998 -4.57688e-05 0
1 -4.67177e-05 0
1 -4.54163e-05 0
1 -4.42412e-05 0
1 -4.09642e-05 0
1.00001 -3.77378e-05 0
1.00001 -3.28019e-05 0
1.00001 -2.80214e-05 0
1.00001 -2.20791e-05 0
1.00001 -1.65581e-05 0
1.00001 -1.04467e-05 0
1.00001 -5.11419e-06 0
1.00001 3.45629e-07 0
1.00001 4.67455e-06 0
1.00001 8.8659e-06 0
1 1.16722e-05 0
1 1.42979e-05 0
1 1.54421e-05 0
1 1.65414e-05 0
1 1.62322e-05 0
0.999999 1.61073e-05 0
0.999998 1.4783e-05 0
0.999998 1.38713e-05 0
0.999998 1.20441e-05 0
0.999997 1.07858e-05 0
0.999998 8.90479e-06 0
0.999998 7.64556e-06 0
0.999998 6.01411e-06 0
0.999998 4.96185e-06 0
0.999999 3.71998e-06 0
0.999999 2.95201e-06 0
0.999999 2.10773e-06 0
0.999999 1.60909e-06 0
0.999999 1.09242e-06 0
1 8.02057e-07 0
1 5.16592e-07 0
1 3.64535e-07 0
1 2.22109e-07 0
1 1.50507e-07 0
1 8.64492e-08 0
1 5.61951e-08 0
1 3.03036e-08 0
1 1.88742e-08 0
1 9.50969e-09 0
1 5.66777e-09 0
1 2.65322e-09 0
1 1.51101e-09 0
1 6.52871e-10 0
1 3.54717e-10 0
1 1.40362e-10 0
1 7.26261e-11 0
1 2.60729e-11 0
1 1.28218e-11 0
1 4.12823e-12 0
1 1.92506e-12 0
1 5.47856e-13 0
1 2.4159e-13 0
1 5.9661e-14 0
1 2.47792e-14 0
1 5.19341e-15 0
1 2.01898e-15 0
1 3.5289e-16 0
1 1.33786e-16 0
1 3.54038e-17 0
1 3.01303e-17 0
1 2.87705e-17 0
1 2.87253e-17 0
1 2.87146e-17 0
1 2.87144e-17 0
1 0 0
1 0 0
1 0 0
1 0 0
1 0 0
1 0 0
1 0 0
1 0 0
1 0 0
1 0 0
1 0 0
1 0 0
1 0 0
1 0 0
1 0 0
1 0 0
1 0 0
1 0 0
1 0 0
1 0 0
1 0 0
1 0 0
1 0 0
1 0 0
1 0 0
1 0 0
1 0 0
1 0 0
1 0 0
1 0 0
1 0 0
1 0 0
1 0 0
1 0 0
1 0 0
1 0 0
1 0 0
1 0 0
1 0 0
1 0 0
1 0 0
1 0 0
1 0 0
1 0 0
1 0 0
1 0 0
1 0 0
1 0 0
1 0 0
1 0 0
1 0 0
1 0 0
1 0 0
1 0 0
1 0 0
1 0 0
1 0 0
1 0 0
1 0 0
1 0 0
1 0 0
1 0 0
1 0 0
1 0 0
1 0 0
1 0 0
1 0 0
1 0 0
1 0 0
1 0 0
1 0 0
1 0 0
1 0 0
1 0 0
1 0 0
1 0 0
1 0 0
1 0 0
1 0 0
1 0 0
1 -2.14273e-16 0
1 -9.39515e-16 0
1 -2.41372e-15 0
1 -7.95977e-15 0
1 -1.94193e-14 0
1 -5.95291e-14 0
1 -1.39256e-13 0
1 -3.97641e-13 0
1 -8.89064e-13 0
1 -2.3757e-12 0
1 -5.08138e-12 0
1 -1.27486e-11 0
1 -2.61186e-11 0
1 -6.17195e-11 0
1 -1.21257e-10 0
1 -2.7065e-10 0
1 -5.10445e-10 0
1 -1.07893e-09 0
1 -1.95528e-09 0
1 -3.9229e-09 0
1 -6.83723e-09 0
1 -1.30483e-08 0
1 -2.18894e-08 0
1 -3.98126e-08 0
1 -6.4334e-08 0
1 -1.11714e-07 0
1 -1.74008e-07 0
1 -2.88949e-07 0
1 -4.34116e-07 0
1 -6.90375e-07 0
0.999999 -1.00106e-06 0
0.999999 -1.52668e-06 0
0.999999 -2.13775e-06 0
0.999998 -3.13028e-06 0
0.999998 -4.23493e-06 0
0.999997 -5.96043e-06 0
0.999996 -7.79463e-06 0
0.999995 -1.05545e-05 0
0.999994 -1.33467e-05 0
0.999993 -1.74004e-05 0
0.999992 -2.12832e-05 0
0.999991 -2.67314e-05 0
0.99999 -3.16301e-05 0
0.999989 -3.82858e-05 0
0.999989 -4.38207e-05 0
0.999989 -5.11201e-05 0
0.999989 -5.65752e-05 0
0.99999 -6.35847e-05 0
0.999991 -6.79822e-05 0
0.999992 -7.35375e-05 0
0.999995 -7.58295e-05 0
0.999997 -7.87939e-05 0
1 -7.81294e-05 0
1 -7.77047e-05 0
1.00001 -7.36923e-05 0
1.00001 -6.96804e-05 0
1.00001 -6.25509e-05 0
1.00001 -5.54673e-05 0
1.00002 -4.60706e-05 0
1.00002 -3.70577e-05 0
1.00002 -2.66829e-05 0
1.00002 -1.72417e-05 0
1.00002 -7.31406e-06 0
1.00001 1.06176e-06 0
1.00001 9.31165e-06 0
1.00001 1.54832e-05 0
1.00001 2.12755e-05 0
1.00001 2.46817e-05 0
1 2.77991e-05 0
1 2.85008e-05 0
0.999999 2.92398e-05 0
0.999998 2.77932e-05 0
0.999997 2.67931e-05 0
0.999996 2.40181e-05 0
0.999996 2.20395e-05 0
0.999995 1.87697e-05 0
0.999995 1.64965e-05 0
0.999996 1.33901e-05 0
0.999996 1.13067e-05 0
0.999997 8.75629e-06 0
0.999997 7.11413e-06 0
0.999998 5.25518e-06 0
0.999998 4.11008e-06 0
0.999999 2.89267e-06 0
0.999999 2.17757e-06 0
0.999999 1.45748e-06 0
0.999999 1.05551e-06 0
1 6.70206e-07 0
1 4.66568e-07 0
1 2.80203e-07 0
1 1.87328e-07 0
1 1.06027e-07 0
1 6.79955e-08 0
1 3.61195e-08 0
1 2.21917e-08 0
1 1.10102e-08 0
1 6.47188e-09 0
1 2.98221e-09 0
1 1.67454e-09 0
1 7.11961e-10 0
1 3.81245e-10 0
1 1.48405e-10 0
1 7.56424e-11 0
1 2.67087e-11 0
1 1.29302e-11 0
1 4.0942e-12 0
1 1.87795e-12 0
1 5.25637e-13 0
1 2.27739e-13 0
1 5.53256e-14 0
1 2.2545e-14 0
1 4.65421e-15 0
1 1.7837e-15 0
1 3.02758e-16 0
1 1.18579e-16 0
1 3.37063e-17 0
1 2.97723e-17 0
1 2.8757e-17 0
1 2.87222e-17 0
1 2.87145e-17 0
1 2.87144e-17 0
1 0 0
1 0 0
1 0 0
1 0 0
1 0 0
1 0 0
1 0 0
1 0 0
1 0 0
1 0 0
1 0 0
1 0 0
1 0 0
1 0 0
1 0 0
1 0 0
1 0 0
1 0 0
1 0 0
1 0 0
1 0 0
1 0 0
1 0 0
1 0 0
1 0 0
1 0 0
1 0 0
1 0 0
1 0 0
1 0 0
1 0 0
1 0 0
1 0 0
1 0 0
1 0 0
1 0 0
1 0 0
1 0 0
1 0 0
1 0 0
1 0 0
1 0 0
1 0 0
1 0 0
1 0 0
1 0 0
1 0 0
1 0 0
1 0 0
1 0 0
1 0 0
1 0 0
1 0 0
1 0 0
1 0 0
1 0 0
1 0 0
1 0 0
1 0 0
1 0 0
1 0 0
1 0 0
1 0 0
1 0 0
1 0 0
1 0 0
1 0 0
1 0 0
1 0 0
1 0 0
1 0 0
1 0 0
1 0 0
1 0 0
1 0 0
1 0 0
1 0 0
1 0 0
1 0 0
1 -6.36181e-16 0
1 -1.88126e-15 0
1 -6.41155e-15 0
1 -1.60105e-14 0
1 -4.97159e-14 0
1 -1.18372e-13 0
1 -3.42805e-13 0
1 -7.79768e-13 0
1 -2.1131e-12 0
1 -4.59642e-12 0
1 -1.16958e-11 0
1 -2.43577e-11 0
1 -5.83772e-11 0
1 -1.16543e-10 0
1 -2.63819e-10 0
1 -5.05432e-10 0
1 -1.08343e-09 0
1 -1.9939e-09 0
1 -4.05658e-09 0
1 -7.17804e-09 0
1 -1.38897e-08 0
1 -2.36509e-08 0
1 -4.3611e-08 0
1 -7.15151e-08 0
1 -1.25885e-07 0
1 -1.98947e-07 0
1 -3.34844e-07 0
1 -5.10337e-07 0
0.999999 -8.22499e-07 0
0.999999 -1.20969e-06 0
0.999999 -1.86945e-06 0
0.999998 -2.65478e-06 0
0.999998 -3.93878e-06 0
0.999997 -5.40366e-06 0
0.999996 -7.70538e-06 0
0.999995 -1.02174e-05 0
0.999993 -1.40166e-05 0
0.999992 -1.79719e-05 0
0.99999 -2.37383e-05 0
0.999988 -2.94408e-05 0
0.999986 -3.7467e-05 0
0.999985 -4.49564e-05 0
0.999983 -5.51487e-05 0
0.999982 -6.40233e-05 0
0.999981 -7.57206e-05 0
0.999981 -8.50319e-05 0
0.999981 -9.69451e-05 0
0.999982 -0.000105243 0
0.999984 -0.000115589 0
0.999987 -0.000121156 0
0.999991 -0.000128005 0
0.999996 -0.000129252 0
1 -0.000131006 0
1.00001 -0.000126914 0
1.00001 -0.000122784 0
1.00002 -0.000113258 0
1.00002 -0.000103563 0
1.00002 -8.9548e-05 0
1.00003 -7.57184e-05 0
1.00003 -5.9036e-05 0
1.00003 -4.33101e-05 0
1.00003 -2.62471e-05 0
1.00003 -1.11366e-05 0
1.00002 4.08361e-06 0
1.00002 1.63824e-05 0
1.00002 2.80847e-05 0
1.00001 3.61584e-05 0
1.00001 4.35171e-05 0
1.00001 4.69532e-05 0
1 5.00422e-05 0
0.999999 4.93606e-05 0
0.999996 4.89709e-05 0
0.999994 4.53289e-05 0
0.999993 4.26431e-05 0
0.999992 3.74366e-05 0
0.999992 3.36791e-05 0
0.999992 2.8176e-05 0
0.999992 2.43421e-05 0
0.999993 1.94438e-05 0
0.999994 1.61648e-05 0
0.999995 1.2332e-05 0
0.999996 9.87418e-06 0
0.999997 7.18953e-06 0
0.999997 5.54491e-06 0
0.999998 3.84765e-06 0
0.999998 2.85731e-06 0
0.999999 1.88565e-06 0
0.999999 1.34739e-06 0
0.999999 8.43463e-07 0
1 5.7939e-07 0
1 3.42972e-07 0
1 2.2624e-07 0
1 1.26179e-07 0
1 7.98317e-08 0
1 4.17722e-08 0
1 2.53148e-08 0
1 1.23672e-08 0
1 7.16835e-09 0
1 3.2514e-09 0
1 1.79959e-09 0
1 7.52913e-10 0
1 3.97216e-10 0
1 1.52118e-10 0
1 7.63422e-11 0
1 2.65153e-11 0
1 1.26296e-11 0
1 3.9336e-12 0
1 1.77354e-12 0
1 4.88332e-13 0
1 2.07773e-13 0
1 4.96573e-14 0
1 1.98599e-14 0
1 4.00946e-15 0
1 1.50174e-15 0
1 2.36597e-16 0
1 9.06449e-17 0
1 3.24011e-17 0
1 2.94619e-17 0
1 2.87451e-17 0
1 2.87198e-17 0
1 2.87145e-17 0
1 2.87144e-17 0
1 0 0
1 0 0
1 0 0
1 0 0
1 0 0
1 0 0
1 0 0
1 0 0
1 0 0
1 0 0
1 0 0
1 0 0
1 0 0
1 0 0
1 0 0
1 0 0
1 0 0
1 0 0
1 0 0
1 0 0
1 0 0
1 0 0
1 0 0
1 0 0
1 0 0
1 0 0
1 0 0
1 0 0
1 0 0
1 0 0
1 0 0
1 0 0
1 0 0
1 0 0
1 0 0
1 0 0
1 0 0
1 0 0
1 0 0
1 0 0
1 0 0
1 0 0
1 0 0
1 0 0
1 0 0
1 0 0
1 0 0
1 0 0
1 0 0
1 0 0
1 0 0
1 0 0
1 0 0
1 0 0
1 0 0
1 0 0
1 0 0
1 0 0
1 0 0
1 0 0
1 0 0
1 0 0
1 0 0
1 0 0
1 0 0
1 0 0
1 0 0
1 0 0
1 0 0
1 0 0
1 0 0
1 0 0
1 0 0
1 0 0
1 0 0
1 0 0
1 0 0
1 0 0
1 -1.24985e-15 0
1 -4.91099e-15 0
1 -1.27313e-14 0
1 -4.02081e-14 0
1 -9.7597e-14 0
1 -2.86682e-13 0
1 -6.63596e-13 0
1 -1.82386e-12 0
1 -4.03531e-12 0
1 -1.04143e-11 0
1 -2.20515e-11 0
1 -5.36032e-11 0
1 -1.08759e-10 0
1 -2.497e-10 0
1 -4.86019e-10 0
1 -1.05658e-09 0
1 -1.97491e-09 0
1 -4.07453e-09 0
1 -7.3206e-09 0
1 -1.43636e-08 0
1 -2.48274e-08 0
1 -4.64153e-08 0
1 -7.72465e-08 0
1 -1.37842e-07 0
1 -2.21039e-07 0
1 -3.7709e-07 0
1 -5.83049e-07 0
0.999999 -9.52348e-07 0
0.999999 -1.42071e-06 0
0.999999 -2.22486e-06 0
0.999998 -3.20424e-06 0
0.999997 -4.81686e-06 0
0.999996 -6.70102e-06 0
0.999995 -9.6808e-06 0
0.999993 -1.30155e-05 0
0.999991 -1.80883e-05 0
0.999989 -2.35136e-05 0
0.999986 -3.14631e-05 0
0.999983 -3.95601e-05 0
0.99998 -5.10035e-05 0
0.999977 -6.2046e-05 0
0.999973 -7.71181e-05 0
0.999971 -9.07794e-05 0
0.999969 -0.000108811 0
0.999968 -0.000123934 0
0.999967 -0.000143263 0
0.999968 -0.000157821 0
0.999971 -0.000175873 0
0.999974 -0.000187222 0
0.999979 -0.000200925 0
0.999986 -0.000206338 0
0.999993 -0.000212818 0
1 -0.000210185 0
1.00001 -0.000207551 0
1.00002 -0.00019602 0
1.00003 -0.000183977 0
1.00003 -0.00016432 0
1.00004 -0.000144392 0
1.00004 -0.000118943 0
1.00005 -9.41977e-05 0
1.00005 -6.63636e-05 0
1.00005 -4.07157e-05 0