# vtk DataFile Version 3.0
Flow field at step 1300
ASCII
DATASET STRUCTURED_GRID
DIMENSIONS 200 100 1
POINTS 20000 float
0.005 0.005 0
0.015 0.005 0
0.025 0.005 0
0.035 0.005 0
0.045 0.005 0
0.055 0.005 0
0.065 0.005 0
0.075 0.005 0
0.085 0.005 0
0.095 0.005 0
0.105 0.005 0
0.115 0.005 0
0.125 0.005 0
0.135 0.005 0
0.145 0.005 0
0.155 0.005 0
0.165 0.005 0
0.175 0.005 0
0.185 0.005 0
0.195 0.005 0
0.205 0.005 0
0.215 0.005 0
0.225 0.005 0
0.235 0.005 0
0.245 0.005 0
0.255 0.005 0
0.265 0.005 0
0.275 0.005 0
0.285 0.005 0
0.295 0.005 0
0.305 0.005 0
0.315 0.005 0
0.325 0.005 0
0.335 0.005 0
0.345 0.005 0
0.355 0.005 0
0.365 0.005 0
0.375 0.005 0
0.385 0.005 0
0.395 0.005 0
0.405 0.005 0
0.415 0.005 0
0.425 0.005 0
0.435 0.005 0
0.445 0.005 0
0.455 0.005 0
0.465 0.005 0
0.475 0.005 0
0.485 0.005 0
0.495 0.005 0
0.505 0.005 0
0.515 0.005 0
0.525 0.005 0
0.535 0.005 0
0.545 0.005 0
0.555 0.005 0
0.565 0.005 0
0.575 0.005 0
0.585 0.005 0
0.595 0.005 0
0.605 0.005 0
0.615 0.005 0
0.625 0.005 0
0.635 0.005 0
0.645 0.005 0
0.655 0.005 0
0.665 0.005 0
0.675 0.005 0
0.685 0.005 0
0.695 0.005 0
0.705 0.005 0
0.715 0.005 0
0.725 0.005 0
0.735 0.005 0
0.745 0.005 0
0.755 0.005 0
0.765 0.005 0
0.775 0.005 0
0.785 0.005 0
0.795 0.005 0
0.805 0.005 0
0.815 0.005 0
0.825 0.005 0
0.835 0.005 0
0.845 0.005 0
0.855 0.005 0
0.865 0.005 0
0.875 0.005 0
0.885 0.005 0
0.895 0.005 0
0.905 0.005 0
0.915 0.005 0
0.925 0.005 0
0.935 0.005 0
0.945 0.005 0
0.955 0.005 0
0.965 0.005 0
0.975 0.005 0
0.985 0.005 0
0.995 0.005 0
1.005 0.005 0
1.015 0.005 0
1.025 0.005 0
1.035 0.005 0
1.045 0.005 0
1.055 0.005 0
1.065 0.005 0
1.075 0.005 0
1.085 0.005 0
1.095 0.005 0
1.105 0.005 0
1.115 0.005 0
1.125 0.005 0
1.135 0.005 0
1.145 0.005 0
1.155 0.005 0
1.165 0.005 0
1.175 0.005 0
1.185 0.005 0
1.195 0.005 0
1.205 0.005 0
1.215 0.005 0
1.225 0.005 0
1.235 0.005 0
1.245 0.005 0
1.255 0.005 0
1.265 0.005 0
1.275 0.005 0
1.285 0.005 0
1.295 0.005 0
1.305 0.005 0
1.315 0.005 0
1.325 0.005 0
1.335 0.005 0
1.345 0.005 0
1.355 0.005 0
1.365 0.005 0
1.375 0.005 0
1.385 0.005 0
1.395 0.005 0
1.405 0.005 0
1.415 0.005 0
1.425 0.005 0
1.435 0.005 0
1.445 0.005 0
1.455 0.005 0
1.465 0.005 0
1.475 0.005 0
1.485 0.005 0
1.495 0.005 0
1.505 0.005 0
1.515 0.005 0
1.525 0.005 0
1.535 0.005 0
1.545 0.005 0
1.555 0.005 0
1.565 0.005 0
1.575 0.005 0
1.585 0.005 0
1.595 0.005 0
1.605 0.005 0
1.615 0.005 0
1.625 0.005 0
1.635 0.005 0
1.645 0.005 0
1.655 0.005 0
1.665 0.005 0
1.675 0.005 0
1.685 0.005 0
1.695 0.005 0
1.705 0.005 0
1.715 0.005 0
1.725 0.005 0
1.735 0.005 0
1.745 0.005 0
1.755 0.005 0
1.765 0.005 0
1.775 0.005 0
1.785 0.005 0
1.795 0.005 0
1.805 0.005 0
1.815 0.005 0
1.825 0.005 0
1.835 0.005 0
1.845 0.005 0
1.855 0.005 0
1.865 0.005 0
1.875 0.005 0
1.885 0.005 0
1.895 0.005 0
1.905 0.005 0
1.915 0.005 0
1.925 0.005 0
1.935 0.005 0
1.945 0.005 0
1.955 0.005 0
1.965 0.005 0
1.975 0.005 0
1.985 0.005 0
1.995 0.005 0
0.005 0.015 0
0.015 0.015 0
0.025 0.015 0
0.035 0.015 0
0.045 0.015 0
0.055 0.015 0
0.065 0.015 0
0.075 0.015 0
0.085 0.015 0
0.095 0.015 0
0.105 0.015 0
0.115 0.015 0
0.125 0.015 0
0.135 0.015 0
0.145 0.015 0
0.155 0.015 0
0.165 0.015 0
0.175 0.015 0
0.185 0.015 0
0.195 0.015 0
0.205 0.015 0
0.215 0.015 0
0.225 0.015 0
0.235 0.015 0
0.245 0.015 0
0.255 0.015 0
0.265 0.015 0
0.275 0.015 0
0.285 0.015 0
0.295 0.015 0
0.305 0.015 0
0.315 0.015 0
0.325 0.015 0
0.335 0.015 0
0.345 0.015 0
0.355 0.015 0
0.365 0.015 0
0.375 0.015 0
0.385 0.015 0
0.395 0.015 0
0.405 0.015 0
0.415 0.015 0
0.425 0.015 0
0.435 0.015 0
0.445 0.015 0
0.455 0.015 0
0.465 0.015 0
0.475 0.015 0
0.485 0.015 0
0.495 0.015 0
0.505 0.015 0
0.515 0.015 0
0.525 0.015 0
0.535 0.015 0
0.545 0.015 0
0.555 0.015 0
0.565 0.015 0
0.575 0.015 0
0.585 0.015 0
0.595 0.015 0
0.605 0.015 0
0.615 0.015 0
0.625 0.015 0
0.635 0.015 0
0.645 0.015 0
0.655 0.015 0
0.665 0.015 0
0.675 0.015 0
0.685 0.015 0
0.695 0.015 0
0.705 0.015 0
0.715 0.015 0
0.725 0.015 0
0.735 0.015 0
0.745 0.015 0
0.755 0.015 0
0.765 0.015 0
0.775 0.015 0
0.785 0.015 0
0.795 0.015 0
0.805 0.015 0
0.815 0.015 0
0.825 0.015 0
0.835 0.015 0
0.845 0.015 0
0.855 0.015 0
0.865 0.015 0
0.875 0.015 0
0.885 0.015 0
0.895 0.015 0
0.905 0.015 0
0.915 0.015 0
0.925 0.015 0
0.935 0.015 0
0.945 0.015 0
0.955 0.015 0
0.965 0.015 0
0.975 0.015 0
0.985 0.015 0
0.995 0.015 0
1.005 0.015 0
1.015 0.015 0
1.025 0.015 0
1.035 0.015 0
1.045 0.015 0
1.055 0.015 0
1.065 0.015 0
1.075 0.015 0
1.085 0.015 0
1.095 0.015 0
1.105 0.015 0
1.115 0.015 0
1.125 0.015 0
1.135 0.015 0
1.145 0.015 0
1.155 0.015 0
1.165 0.015 0
1.175 0.015 0
1.185 0.015 0
1.195 0.015 0
1.205 0.015 0
1.215 0.015 0
1.225 0.015 0
1.235 0.015 0
1.245 0.015 0
1.255 0.015 0
1.265 0.015 0
1.275 0.015 0
1.285 0.015 0
1.295 0.015 0
1.305 0.015 0
1.315 0.015 0
1.325 0.015 0
1.335 0.015 0
1.345 0.015 0
1.355 0.015 0
1.365 0.015 0
1.375 0.015 0
1.385 0.015 0
1.395 0.015 0
1.405 0.015 0
1.415 0.015 0
1.425 0.015 0
1.435 0.015 0
1.445 0.015 0
1.455 0.015 0
1.465 0.015 0
1.475 0.015 0
1.485 0.015 0
1.495 0.015 0
1.505 0.015 0
1.515 0.015 0
1.525 0.015 0
1.535 0.015 0
1.545 0.015 0
1.555 0.015 0
1.565 0.015 0
1.575 0.015 0
1.585 0.015 0
1.595 0.015 0
1.605 0.015 0
1.615 0.015 0
1.625 0.015 0
1.635 0.015 0
1.645 0.015 0
1.655 0.015 0
1.665 0.015 0
1.675 0.015 0
1.685 0.015 0
1.695 0.015 0
1.705 0.015 0
1.715 0.015 0
1.725 0.015 0
1.735 0.015 0
1.745 0.015 0
1.755 0.015 0
1.765 0.015 0
1.775 0.015 0
1.785 0.015 0
1.795 0.015 0
1.805 0.015 0
1.815 0.015 0
1.825 0.015 0
1.835 0.015 0
1.845 0.015 0
1.855 0.015 0
1.865 0.015 0
1.875 0.015 0
1.885 0.015 0
1.895 0.015 0
1.905 0.015 0
1.915 0.015 0
1.925 0.015 0
1.935 0.015 0
1.945 0.015 0
1.955 0.015 0
1.965 0.015 0
1.975 0.015 0
1.985 0.015 0
1.995 0.015 0
0.005 0.025 0
0.015 0.025 0
0.025 0.025 0
0.035 0.025 0
0.045 0.025 0
0.055 0.025 0
0.065 0.025 0
0.075 0.025 0
0.085 0.025 0
0.095 0.025 0
0.105 0.025 0
0.115 0.025 0
0.125 0.025 0
0.135 0.025 0
0.145 0.025 0
0.155 0.025 0
0.165 0.025 0
0.175 0.025 0
0.185 0.025 0
0.195 0.025 0
0.205 0.025 0
0.215 0.025 0
0.225 0.025 0
0.235 0.025 0
0.245 0.025 0
0.255 0.025 0
0.265 0.025 0
0.275 0.025 0
0.285 0.025 0
0.295 0.025 0
0.305 0.025 0
0.315 0.025 0
0.325 0.025 0
0.335 0.025 0
0.345 0.025 0
0.355 0.025 0
0.365 0.025 0
0.375 0.025 0
0.385 0.025 0
0.395 0.025 0
0.405 0.025 0
0.415 0.025 0
0.425 0.025 0
0.435 0.025 0
0.445 0.025 0
0.455 0.025 0
0.465 0.025 0
0.475 0.025 0
0.485 0.025 0
0.495 0.025 0
0.505 0.025 0
0.515 0.025 0
0.525 0.025 0
0.535 0.025 0
0.545 0.025 0
0.555 0.025 0
0.565 0.025 0
0.575 0.025 0
0.585 0.025 0
0.595 0.025 0
0.605 0.025 0
0.615 0.025 0
0.625 0.025 0
0.635 0.025 0
0.645 0.025 0
0.655 0.025 0
0.665 0.025 0
0.675 0.025 0
0.685 0.025 0
0.695 0.025 0
0.705 0.025 0
0.715 0.025 0
0.725 0.025 0
0.735 0.025 0
0.745 0.025 0
0.755 0.025 0
0.765 0.025 0
0.775 0.025 0
0.785 0.025 0
0.795 0.025 0
0.805 0.025 0
0.815 0.025 0
0.825 0.025 0
0.835 0.025 0
0.845 0.025 0
0.855 0.025 0
0.865 0.025 0
0.875 0.025 0
0.885 0.025 0
0.895 0.025 0
0.905 0.025 0
0.915 0.025 0
0.925 0.025 0
0.935 0.025 0
0.945 0.025 0
0.955 0.025 0
0.965 0.025 0
0.975 0.025 0
0.985 0.025 0
0.995 0.025 0
1.005 0.025 0
1.015 0.025 0
1.025 0.025 0
1.035 0.025 0
1.045 0.025 0
1.055 0.025 0
1.065 0.025 0
1.075 0.025 0
1.085 0.025 0
1.095 0.025 0
1.105 0.025 0
1.115 0.025 0
1.125 0.025 0
1.135 0.025 0
1.145 0.025 0
1.155 0.025 0
1.165 0.025 0
1.175 0.025 0
1.185 0.025 0
1.195 0.025 0
1.205 0.025 0
1.215 0.025 0
1.225 0.025 0
1.235 0.025 0
1.245 0.025 0
1.255 0.025 0
1.265 0.025 0
1.275 0.025 0
1.285 0.025 0
1.295 0.025 0
1.305 0.025 0
1.315 0.025 0
1.325 0.025 0
1.335 0.025 0
1.345 0.025 0
1.355 0.025 0
1.365 0.025 0
1.375 0.025 0
1.385 0.025 0
1.395 0.025 0
1.405 0.025 0
1.415 0.025 0
1.425 0.025 0
1.435 0.025 0
1.445 0.025 0
1.455 0.025 0
1.465 0.025 0
1.475 0.025 0
1.485 0.025 0
1.495 0.025 0
1.505 0.025 0
1.515 0.025 0
1.525 0.025 0
1.535 0.025 0
1.545 0.025 0
1.555 0.025 0
1.565 0.025 0
1.575 0.025 0
1.585 0.025 0
1.595 0.025 0
1.605 0.025 0
1.615 0.025 0
1.625 0.025 0
1.635 0.025 0
1.645 0.025 0
1.655 0.025 0
1.665 0.025 0
1.675 0.025 0
1.685 0.025 0
1.695 0.025 0
1.705 0.025 0
1.715 0.025 0
1.725 0.025 0
1.735 0.025 0
1.745 0.025 0
1.755 0.025 0
1.765 0.025 0
1.775 0.025 0
1.785 0.025 0
1.795 0.025 0
1.805 0.025 0
1.815 0.025 0
1.825 0.025 0
1.835 0.025 0
1.845 0.025 0
1.855 0.025 0
1.865 0.025 0
1.875 0.025 0
1.885 0.025 0
1.895 0.025 0
1.905 0.025 0
1.915 0.025 0
1.925 0.025 0
1.935 0.025 0
1.945 0.025 0
1.955 0.025 0
1.965 0.025 0
1.975 0.025 0
1.985 0.025 0
1.995 0.025 0
0.005 0.035 0
0.015 0.035 0
0.025 0.035 0
0.035 0.035 0
0.045 0.035 0
0.055 0.035 0
0.065 0.035 0
0.075 0.035 0
0.085 0.035 0
0.095 0.035 0
0.105 0.035 0
0.115 0.035 0
0.125 0.035 0
0.135 0.035 0
0.145 0.035 0
0.155 0.035 0
0.165 0.035 0
0.175 0.035 0
0.185 0.035 0
0.195 0.035 0
0.205 0.035 0
0.215 0.035 0
0.225 0.035 0
0.235 0.035 0
0.245 0.035 0
0.255 0.035 0
0.265 0.035 0
0.275 0.035 0
0.285 0.035 0
0.295 0.035 0
0.305 0.035 0
0.315 0.035 0
0.325 0.035 0
0.335 0.035 0
0.345 0.035 0
0.355 0.035 0
0.365 0.035 0
0.375 0.035 0
0.385 0.035 0
0.395 0.035 0
0.405 0.035 0
0.415 0.035 0
0.425 0.035 0
0.435 0.035 0
0.445 0.035 0
0.455 0.035 0
0.465 0.035 0
0.475 0.035 0
0.485 0.035 0
0.495 0.035 0
0.505 0.035 0
0.515 0.035 0
0.525 0.035 0
0.535 0.035 0
0.545 0.035 0
0.555 0.035 0
0.565 0.035 0
0.575 0.035 0
0.585 0.035 0
0.595 0.035 0
0.605 0.035 0
0.615 0.035 0
0.625 0.035 0
0.635 0.035 0
0.645 0.035 0
0.655 0.035 0
0.665 0.035 0
0.675 0.035 0
0.685 0.035 0
0.695 0.035 0
0.705 0.035 0
0.715 0.035 0
0.725 0.035 0
0.735 0.035 0
0.745 0.035 0
0.755 0.035 0
0.765 0.035 0
0.775 0.035 0
0.785 0.035 0
0.795 0.035 0
0.805 0.035 0
0.815 0.035 0
0.825 0.035 0
0.835 0.035 0
0.845 0.035 0
0.855 0.035 0
0.865 0.035 0
0.875 0.035 0
0.885 0.035 0
0.895 0.035 0
0.905 0.035 0
0.915 0.035 0
0.925 0.035 0
0.935 0.035 0
0.945 0.035 0
0.955 0.035 0
0.965 0.035 0
0.975 0.035 0
0.985 0.035 0
0.995 0.035 0
1.005 0.035 0
1.015 0.035 0
1.025 0.035 0
1.035 0.035 0
1.045 0.035 0
[...]
POINT_DATA 20000
VECTORS velocity float
0.956295 -2.29966e-05 0
0.919257 -5.16796e-05 0
0.888183 -8.49834e-05 0
0.86232 -0.000121314 0
0.840933 -0.000160592 0
0.823347 -0.000201179 0
0.808959 -0.00024393 0
0.797248 -0.000286989 0
0.787772 -0.000332016 0
0.78016 -0.00037682 0
0.774106 -0.000423728 0
0.769358 -0.000470165 0
0.765711 -0.000518996 0
0.763 -0.000567265 0
0.761089 -0.000618265 0
0.75987 -0.000668683 0
0.759258 -0.00072214 0
0.759182 -0.000775018 0
0.759588 -0.00083117 0
0.760433 -0.000886728 0
0.761681 -0.000945689 0
0.763306 -0.001004 0
0.765287 -0.00106571 0
0.767607 -0.00112663 0
0.770255 -0.00119081 0
0.773221 -0.00125399 0
0.776498 -0.00132009 0
0.780082 -0.00138486 0
0.783969 -0.00145208 0
0.788158 -0.00151749 0
0.792645 -0.00158467 0
0.797432 -0.00164944 0
0.802516 -0.00171515 0
0.807898 -0.00177769 0
0.813576 -0.00184015 0
0.819549 -0.00189858 0
0.825817 -0.00195577 0
0.832375 -0.00200796 0
0.839223 -0.00205765 0
0.846354 -0.00210128 0
0.853766 -0.00214113 0
0.861451 -0.00217387 0
0.869402 -0.00220155 0
0.877611 -0.00222112 0
0.886068 -0.00223446 0
0.894763 -0.00223881 0
0.903683 -0.00223595 0
0.912813 -0.00222343 0
0.922141 -0.00220294 0
0.931649 -0.00217241 0
0.94132 -0.0021335 0
0.951136 -0.00208447 0
0.961078 -0.00202699 0
0.971125 -0.00195969 0
0.981257 -0.00188426 0
0.99145 -0.00179968 0
1.00168 -0.00170765 0
1.01193 -0.0016075 0
1.02218 -0.00150093 0
1.03239 -0.00138761 0
1.04255 -0.00126917 0
1.05264 -0.00114559 0
1.06262 -0.00101844 0
1.07248 -0.00088795 0
1.08219 -0.00075556 0
1.09173 -0.000621748 0
1.10108 -0.000487757 0
1.11022 -0.00035429 0
1.11912 -0.000222325 0
1.12776 -9.27812e-05 0
1.13613 3.37023e-05 0
1.1442 0.000155987 0
1.15197 0.000273847 0
1.1594 0.000385913 0
1.16649 0.000492444 0
1.17323 0.000591819 0
1.17959 0.000684854 0
1.18556 0.00076964 0
1.19115 0.000847614 0
1.19632 0.000916543 0
1.20109 0.000978544 0
1.20544 0.00103101 0
1.20937 0.00107678 0
1.21288 0.00111283 0
1.21596 0.00114277 0
1.21862 0.00116309 0
1.22086 0.00117819 0
1.22268 0.00118402 0
1.22409 0.0011858 0
1.2251 0.00117888 0
1.22573 0.00116928 0
1.22597 0.00115171 0
1.22585 0.00113296 0
1.22539 0.00110708 0
1.2246 0.0010816 0
1.22349 0.00104986 0
1.22209 0.00102006 0
1.22043 0.000984868 0
1.21851 0.000953069 0
1.21637 0.000916684 0
1.21402 0.000884979 0
1.2115 0.000849388 0
1.20881 0.000819552 0
1.20599 0.000786406 0
1.20305 0.000759847 0
1.20002 0.000730417 0
1.19692 0.000708144 0
1.19376 0.000683314 0
1.19057 0.000665949 0
1.18735 0.000646232 0
1.18413 0.000634042 0
1.18092 0.000619622 0
1.17772 0.00061257 0
1.17456 0.000603362 0
1.17144 0.000601169 0
1.16837 0.000596875 0
1.16535 0.000599086 0
1.16239 0.000599261 0
1.1595 0.000605308 0
1.15667 0.000609416 0
1.15391 0.00061867 0
1.15122 0.000626135 0
1.1486 0.000637954 0
1.14605 0.000648194 0
1.14357 0.000661961 0
1.14115 0.00067442 0
1.1388 0.000689563 0
1.13651 0.00070373 0
1.13427 0.000719743 0
1.13209 0.000735161 0
1.12996 0.000751608 0
1.12787 0.000767882 0
1.12583 0.000784405 0
1.12383 0.000801198 0
1.12186 0.000817511 0
1.11992 0.000834543 0
1.11801 0.000850428 0
1.11613 0.000867466 0
1.11426 0.000882769 0
1.11242 0.000899623 0
1.11058 0.000914241 0
1.10876 0.000930755 0
1.10694 0.000944631 0
1.10513 0.000960674 0
1.10332 0.000973789 0
1.10151 0.000989247 0
1.09969 0.00100161 0
1.09788 0.00101638 0
1.09605 0.00102802 0
1.09422 0.00104202 0
1.09238 0.00105298 0
1.09053 0.0010661 0
1.08866 0.00107643 0
1.08678 0.00108859 0
1.08489 0.00109835 0
1.08298 0.00110944 0
1.08106 0.00111869 0
1.07912 0.00112861 0
1.07717 0.00113738 0
1.0752 0.00114602 0
1.07321 0.00115436 0
1.07121 0.0011616 0
1.0692 0.00116953 0
1.06716 0.00117526 0
1.06512 0.00118279 0
1.06306 0.00118688 0
1.06098 0.001194 0
1.0589 0.00119632 0
1.0568 0.00120301 0
1.05469 0.00120344 0
1.05258 0.00120965 0
1.05046 0.00120806 0
1.04834 0.00121372 0
1.04621 0.00121 0
1.04408 0.00121501 0
1.04195 0.00120905 0
1.03983 0.00121328 0
1.03772 0.00120497 0
1.03561 0.00120828 0
1.03351 0.00119753 0
1.03143 0.00119974 0
1.02937 0.00118645 0
1.02733 0.00118736 0
1.02532 0.00117145 0
1.02334 0.00117084 0
1.02138 0.00115224 0
1.01947 0.00114986 0
1.0176 0.00112849 0
1.01578 0.0011241 0
1.01401 0.00109995 0
1.0123 0.00109333 0
1.01065 0.0010665 0
1.00907 0.00105758 0
1.00757 0.00102851 0
1.00614 0.0010175 0
1.00481 0.000987589 0
1.00357 0.000975559 0
1.00245 0.000948629 0
1.00149 0.000938692 0
1.00082 0.000924663 0
0.95628 -6.88601e-05 0
0.919231 -0.000155126 0
0.888147 -0.000254468 0
0.862277 -0.000364135 0
0.840885 -0.00048087 0
0.823294 -0.000603834 0
0.808903 -0.000730434 0
0.797189 -0.000861359 0
0.78771 -0.000994252 0
0.780095 -0.00113093 0
0.774039 -0.00126898 0
0.769289 -0.00141103 0
0.76564 -0.00155443 0
0.762926 -0.0017024 0
0.761012 -0.00185195 0
0.759791 -0.00200671 0
0.759176 -0.00216336 0
0.759097 -0.00232578 0
0.7595 -0.00249033 0
0.760342 -0.00266099 0
0.761587 -0.00283385 0
0.763209 -0.00301291 0
0.765187 -0.00319398 0
0.767505 -0.00338097 0
0.77015 -0.00356947 0
0.773114 -0.00376322 0
0.77639 -0.00395761 0
0.779972 -0.0041561 0
0.783859 -0.00435396 0
0.788047 -0.00455428 0
0.792535 -0.00475223 0
0.797322 -0.00495052 0
0.802408 -0.00514423 0
0.807792 -0.00533567 0
0.813473 -0.00551988 0
0.819451 -0.00569876 0
0.825724 -0.00586738 0
0.832289 -0.00602728 0
0.839143 -0.00617361 0
0.846283 -0.0063076 0
0.853703 -0.0064246 0
0.861398 -0.0065256 0
0.86936 -0.00660625 0
0.877581 -0.00666742 0
0.886051 -0.00670516 0
0.894758 -0.00672036 0
0.903691 -0.00670959 0
0.912836 -0.00667383 0
0.922178 -0.00661028 0
0.9317 -0.00652018 0
0.941385 -0.00640138 0
0.951215 -0.00625547 0
0.96117 -0.00608104 0
0.971229 -0.00588005 0
0.981372 -0.00565183 0
0.991577 -0.00539873 0
1.00182 -0.00512083 0
1.01208 -0.00482082 0
1.02233 -0.00449945 0
1.03255 -0.00415971 0
1.04271 -0.00380292 0
1.0528 -0.00343229 0
1.06278 -0.00304959 0
1.07264 -0.0026581 0
1.08235 -0.00225998 0
1.09189 -0.00185842 0
1.10123 -0.00145585 0
1.11035 -0.00105521 0
1.11924 -0.000659108 0
1.12787 -0.000270101 0
1.13623 0.000109108 0
1.14429 0.000476509 0
1.15203 0.000829362 0
1.15945 0.00116633 0
1.16652 0.00148468 0
1.17323 0.00178387 0
1.17957 0.00206118 0
1.18553 0.00231697 0
1.19109 0.00254853 0
1.19624 0.00275719 0
1.20099 0.00294024 0
1.20531 0.00310004 0
1.20922 0.0032338 0
1.2127 0.00334498 0
1.21576 0.00343063 0
1.2184 0.00349529 0
1.22061 0.00353579 0
1.22241 0.00355774 0
1.22381 0.00355764 0
1.2248 0.00354212 0
1.2254 0.00350723 0
1.22563 0.00346056 0
1.2255 0.00339761 0
1.22502 0.00332681 0
1.22421 0.00324303 0
1.22309 0.00315539 0
1.22168 0.00305808 0
1.22001 0.00296078 0
1.21808 0.00285694 0
1.21593 0.00275666 0
1.21358 0.00265262 0
1.21105 0.0025552 0
1.20835 0.00245638 0
1.20553 0.00236666 0
1.20259 0.00227737 0
1.19955 0.00219901 0
1.19645 0.00212241 0
1.19329 0.00205791 0
1.19009 0.00199598 0
1.18687 0.00194673 0
1.18365 0.00190043 0
1.18043 0.00186681 0
1.17724 0.00183619 0
1.17408 0.00181779 0
1.17095 0.00180215 0
1.16788 0.00179793 0
1.16486 0.00179608 0
1.1619 0.00180455 0
1.15901 0.00181493 0
1.15618 0.00183435 0
1.15342 0.0018552 0
1.15073 0.00188373 0
1.14811 0.00191326 0
1.14555 0.00194905 0
1.14307 0.00198551 0
1.14065 0.00202681 0
1.1383 0.00206855 0
1.136 0.00211378 0
1.13377 0.00215933 0
1.13158 0.0022071 0
1.12945 0.00225518 0
1.12736 0.0023043 0
1.12532 0.00235382 0
1.12332 0.0024033 0
1.12135 0.00245337 0
1.11941 0.00250244 0
1.1175 0.00255232 0
1.11561 0.00260038 0
1.11375 0.0026495 0
1.1119 0.00269611 0
1.11007 0.00274402 0
1.10824 0.00278886 0
1.10642 0.00283522 0
1.10461 0.00287808 0
1.1028 0.00292264 0
1.10099 0.0029634 0
1.09918 0.00300595 0
1.09737 0.00304455 0
1.09555 0.00308492 0
1.09371 0.00312135 0
1.09188 0.00315939 0
1.09003 0.00319364 0
1.08816 0.00322923 0
1.08629 0.00326133 0
1.0844 0.00329432 0
1.08249 0.00332427 0
1.08058 0.00335452 0
1.07864 0.00338231 0
1.07669 0.00340965 0
1.07473 0.00343526 0
1.07274 0.0034595 0
1.07075 0.00348288 0
1.06873 0.0035038 0
1.06671 0.00352487 0
1.06466 0.00354224 0
1.06261 0.00356087 0
1.06054 0.00357443 0
1.05846 0.00359047 0
1.05637 0.00359994 0
1.05427 0.00361318 0
1.05216 0.00361828 0
1.05005 0.00362847 0
1.04793 0.00362887 0
1.04581 0.00363575 0
1.04368 0.00363112 0
1.04156 0.00363434 0
1.03945 0.00362436 0
1.03734 0.00362355 0
1.03524 0.00360785 0
1.03315 0.00360259 0
1.03107 0.00358082 0
1.02902 0.00357064 0
1.02699 0.00354242 0
1.02498 0.00352681 0
1.023 0.00349175 0
1.02106 0.00347016 0
1.01915 0.00342788 0
1.01729 0.00339975 0
1.01547 0.00334991 0
1.01371 0.00331476 0
1.012 0.00325718 0
1.01036 0.00321479 0
1.00878 0.00314985 0
1.00728 0.00310072 0
1.00587 0.00303027 0
1.00454 0.00297688 0
1.00331 0.00290662 0
1.00219 0.00285652 0
1.00123 0.00280197 0
1.00057 0.00277517 0
0.95625 -0.000114673 0
0.919177 -0.000258074 0
0.888075 -0.000423746 0
0.862191 -0.000605771 0
0.840788 -0.000800726 0
0.823189 -0.00100452 0
0.80879 -0.00121627 0
0.79707 -0.00143296 0
0.787586 -0.00165555 0
0.779967 -0.00188151 0
0.773906 -0.00211304 0
0.769151 -0.00234767 0
0.765498 -0.00258844 0
0.762779 -0.00283271 0
0.76086 -0.00308403 0
0.759633 -0.00333947 0
0.759012 -0.00360289 0
0.758928 -0.003871 0
0.759325 -0.00414781 0
0.76016 -0.00442964 0
0.7614 -0.0047205 0
0.763016 -0.00501636 0
0.764988 -0.00532106 0
0.767301 -0.00563023 0
0.769941 -0.00594747 0
0.772901 -0.00626804 0
0.776173 -0.00659519 0
0.779753 -0.00692387 0
0.783637 -0.00725686 0
0.787824 -0.00758881 0
0.792312 -0.00792198 0
0.797102 -0.00825077 0
0.802191 -0.00857686 0
0.80758 -0.00889443 0
0.813268 -0.0092046 0
0.819254 -0.00950142 0
0.825537 -0.00978546 0
0.832114 -0.0100507 0
0.838983 -0.0102974 0
0.846139 -0.0105196 0
0.853578 -0.010717 0
0.861292 -0.0108841 0
0.869276 -0.0110206 0
0.87752 -0.0111212 0
0.886015 -0.0111857 0
0.894748 -0.0112094 0
0.903708 -0.0111925 0
0.912881 -0.011131 0
0.92225 -0.0110256 0
0.9318 -0.0108733 0
0.941513 -0.0106752 0
0.95137 -0.0104295 0
0.961352 -0.0101382 0
0.971436 -0.00980049 0
0.981603 -0.00941908 0
0.991828 -0.00899438 0
1.00209 -0.00852983 0
1.01237 -0.0080269 0
1.02263 -0.0074897 0
1.03286 -0.00692064 0
1.04303 -0.00632435 0
1.05312 -0.00570403 0
1.06311 -0.00506462 0
1.07296 -0.00440992 0
1.08266 -0.00374498 0
1.09218 -0.00307399 0
1.10151 -0.00240187 0
1.11062 -0.00173301 0
1.11949 -0.00107196 0
1.12809 -0.000423164 0
1.13642 0.00020944 0
1.14444 0.000821526 0
1.15216 0.00140995 0
1.15954 0.00197061 0
1.16657 0.00250136 0
1.17324 0.00299836 0
1.17953 0.00346064 0
1.18544 0.00388468 0
1.19096 0.00427076 0
1.19607 0.0046157 0
1.20077 0.00492113 0
1.20505 0.00518415 0
1.20891 0.00540778 0
1.21234 0.00558935 0
1.21536 0.00573327 0
1.21795 0.00583697 0
1.22012 0.00590626 0
1.22188 0.00593851 0
1.22323 0.00594081 0
1.22418 0.00591037 0
1.22475 0.00585544 0
1.22495 0.00577289 0
1.22478 0.00567194 0
1.22427 0.00554898 0
1.22344 0.00541403 0
1.22229 0.00526282 0
1.22086 0.00510599 0
1.21916 0.00493848 0
1.21722 0.00477133 0
1.21505 0.00459862 0
1.21269 0.00443159 0
1.21014 0.00426344 0
1.20744 0.00410542 0
1.2046 0.00394988 0
1.20165 0.00380792 0
1.19861 0.00367114 0
1.1955 0.00355035 0
1.19233 0.00343654 0
1.18913 0.00334013 0
1.18591 0.00325166 0
1.18268 0.00318107 0
1.17947 0.0031187 0
1.17627 0.00307389 0
1.1731 0.00303701 0
1.16998 0.00301675 0
1.1669 0.00300373 0
1.16388 0.00300591 0
1.16092 0.0030144 0
1.15802 0.00303635 0
1.15519 0.00306356 0
1.15242 0.00310229 0
1.14973 0.00314524 0
1.14711 0.00319769 0
1.14455 0.0032534 0
1.14206 0.00331661 0
1.13964 0.00338223 0
1.13728 0.00345344 0
1.13499 0.0035264 0
1.13275 0.00360314 0
1.13056 0.00368114 0
1.12843 0.00376127 0
1.12634 0.00384234 0
1.12429 0.00392408 0
1.12229 0.00400658 0
1.12032 0.00408846 0
1.11838 0.00417106 0
1.11647 0.00425192 0
1.11458 0.00433356 0
1.11271 0.00441252 0
1.11087 0.00449239 0
1.10903 0.00456879 0
1.10721 0.00464625 0
1.10539 0.00471966 0
1.10358 0.00479424 0
1.10178 0.00486435 0
1.09997 0.00493571 0
1.09816 0.00500232 0
1.09635 0.00507019 0
1.09453 0.00513321 0
1.0927 0.00519738 0
1.09087 0.00525674 0
1.08902 0.00531704 0
1.08717 0.00537271 0
1.0853 0.00542895 0
1.08341 0.0054809 0
1.08152 0.00553289 0
1.0796 0.00558108 0
1.07768 0.00562861 0
1.07573 0.00567297 0
1.07378 0.00571578 0
1.0718 0.00575618 0
1.06981 0.005794 0
1.06781 0.00583029 0
1.06579 0.00586278 0
1.06376 0.00589474 0
1.06171 0.00592154 0
1.05966 0.0059489 0
1.05759 0.00596959 0
1.05551 0.00599201 0
1.05342 0.00600614 0
1.05132 0.00602323 0
1.04922 0.00603031 0
1.04711 0.00604162 0
1.045 0.00604114 0
1.04289 0.00604615 0
1.04078 0.00603755 0
1.03868 0.00603568 0
1.03658 0.00601838 0
1.03449 0.00600897 0
1.03242 0.00598235 0
1.03036 0.00596471 0
1.02831 0.00592813 0
1.02629 0.00590146 0
1.0243 0.00585423 0
1.02233 0.00581771 0
1.0204 0.00575914 0
1.01851 0.00571189 0
1.01665 0.00564129 0
1.01485 0.00558249 0
1.0131 0.00549933 0
1.0114 0.00542841 0
1.00977 0.00533265 0
1.00821 0.0052498 0
1.00672 0.00514286 0
1.00531 0.00505037 0
1.00399 0.0049375 0
1.00277 0.00484319 0
1.00166 0.00473957 0
1.00071 0.00466518 0
1.00005 0.0046105 0
0.956205 -0.000160176 0
0.919097 -0.000360692 0
0.887968 -0.000591854 0
0.862062 -0.000846593 0
0.840642 -0.00111835 0
0.82303 -0.00140382 0
0.808621 -0.00169871 0
0.796893 -0.00200255 0
0.787401 -0.00231231 0
0.779774 -0.00262945 0
0.773707 -0.00295149 0
0.768945 -0.00328111 0
0.765284 -0.00361592 0
0.762557 -0.00395935 0
0.760631 -0.00430883 0
0.759396 -0.00466822 0
0.758766 -0.00503461 0
0.758673 -0.00541206 0
0.759062 -0.00579724 0
0.759888 -0.0061942 0
0.761118 -0.00659919 0
0.762725 -0.00701607 0
0.764689 -0.00744064 0
0.766994 -0.00787646 0
0.769627 -0.00831884 0
0.77258 -0.00877089 0
0.775846 -0.00922746 0
0.779421 -0.00969111 0
0.783303 -0.0101562 0
0.787489 -0.0106246 0
0.791978 -0.0110903 0
0.796769 -0.0115545 0
0.801864 -0.0120106 0
0.80726 -0.0124591 0
0.812958 -0.0128931 0
0.818957 -0.0133125 0
0.825255 -0.0137101 0
0.831851 -0.0140851 0
0.83874 -0.0144304 0
0.845921 -0.0147446 0
0.853386 -0.0150208 0
0.861131 -0.0152574 0
0.869148 -0.0154478 0
0.877427 -0.0155905 0
0.885958 -0.0156795 0
0.894731 -0.0157138 0
0.903731 -0.0156881 0
0.912945 -0.0156021 0
0.922357 -0.0154517 0
0.931949 -0.0152374 0
0.941704 -0.0149565 0
0.951602 -0.0146105 0
0.961622 -0.0141984 0
0.971744 -0.0137227 0
0.981945 -0.0131838 0
0.992203 -0.0125857 0
1.00249 -0.0119301 0
1.01279 -0.011222 0
1.02308 -0.0104646 0
1.03332 -0.00966375 0
1.04351 -0.00882386 0
1.0536 -0.0079514 0
1.06358 -0.00705165 0
1.07343 -0.00613147 0
1.08312 -0.00519675 0
1.09263 -0.00425439 0
1.10193 -0.0033106 0
1.11101 -0.002372 0
1.11984 -0.00144485 0
1.12841 -0.000535182 0
1.13669 0.00035093 0
1.14467 0.00120837 0
1.15233 0.00203141 0
1.15965 0.0028161 0
1.16663 0.00355723 0
1.17323 0.00425222 0
1.17947 0.00489646 0
1.18531 0.00548891 0
1.19075 0.00602562 0
1.19579 0.0065072 0
1.20042 0.00693032 0
1.20463 0.00729733 0
1.20842 0.00760549 0
1.21179 0.00785886 0
1.21473 0.00805516 0
1.21726 0.00820015 0
1.21936 0.00829186 0
1.22106 0.00833764 0
1.22235 0.00833562 0
1.22325 0.00829458 0
1.22376 0.00821257 0
1.2239 0.00809956 0
1.22369 0.0079533 0
1.22314 0.00778472 0
1.22226 0.007591 0
1.22108 0.0073838 0
1.21962 0.00715955 0
1.21789 0.00693032 0
1.21592 0.00669164 0
1.21373 0.00645575 0
1.21134 0.00621719 0
1.20877 0.00598811 0
1.20605 0.00576203 0
1.2032 0.00555083 0
1.20024 0.00534707 0
1.19719 0.00516217 0
1.19407 0.00498784 0
1.1909 0.00483496 0
1.18769 0.00469456 0
1.18446 0.00457688 0
1.18123 0.00447248 0
1.178 0.00439091 0
1.1748 0.00432253 0
1.17163 0.00427613 0
1.1685 0.00424215 0
1.16542 0.00422856 0
1.1624 0.00422614 0
1.15943 0.004242 0
1.15653 0.00426751 0
1.15369 0.00430887 0
1.15093 0.00435826 0
1.14823 0.00442092 0
1.1456 0.00449001 0
1.14304 0.00456976 0
1.14055 0.0046545 0
1.13812 0.00474738 0
1.13576 0.00484397 0
1.13346 0.00494635 0
1.13122 0.00505141 0
1.12903 0.00516008 0
1.12689 0.00527065 0
1.1248 0.00538289 0
1.12275 0.00549648 0
1.12074 0.00561003 0
1.11877 0.00572456 0
1.11683 0.0058376 0
1.11492 0.00595144 0
1.11303 0.00606254 0
1.11117 0.00617438 0
1.10932 0.00628249 0
1.10748 0.00639135 0
1.10566 0.00649568 0
1.10385 0.00660082 0
1.10204 0.00670083 0
1.10024 0.0068017 0
1.09843 0.00689703 0
1.09663 0.00699323 0
1.09482 0.00708365 0
1.09301 0.00717488 0
1.09119 0.00726026 0
1.08936 0.00734626 0
1.08752 0.00742651 0
1.08567 0.00750707 0
1.08381 0.0075821 0
1.08194 0.00765698 0
1.08005 0.00772672 0
1.07815 0.00779568 0
1.07623 0.00786001 0
1.0743 0.00792275 0
1.07235 0.0079815 0
1.07039 0.00803767 0
1.06842 0.00809063 0
1.06643 0.00813983 0
1.06442 0.0081867 0
1.06241 0.00822847 0
1.06037 0.00826888 0
1.05833 0.00830269 0
1.05628 0.00833619 0
1.05421 0.00836146 0
1.05214 0.00838754 0
1.05006 0.00840361 0
1.04797 0.00842166 0
1.04589 0.00842786 0
1.04379 0.00843719 0
1.0417 0.00843276 0
1.03961 0.0084326 0
1.03753 0.00841675 0
1.03545 0.00840626 0
1.03338 0.00837813 0
1.03132 0.00835638 0
1.02928 0.00831508 0
1.02726 0.00828103 0
1.02525 0.00822562 0
1.02328 0.00817817 0
1.02133 0.00810764 0
1.01942 0.00804564 0
1.01754 0.00795898 0
1.01571 0.00788125 0
1.01392 0.00777755 0
1.01219 0.0076831 0
1.01051 0.00756182 0
1.00889 0.0074503 0
1.00735 0.00731209 0
1.00587 0.00718497 0
1.00448 0.00703373 0
1.00318 0.00689737 0
1.00197 0.00674553 0
1.00087 0.00661879 0
0.999934 0.00650035 0
0.99928 0.00643297 0
0.956146 -0.000205443 0
0.91899 -0.000462394 0
0.887824 -0.000759049 0
0.86189 -0.00108522 0
0.840449 -0.00143419 0
0.82282 -0.00179946 0
0.808397 -0.00217841 0
0.796656 -0.00256696 0
0.787154 -0.00296534 0
0.779518 -0.00337075 0
0.773441 -0.00378526 0
0.76867 -0.00420658 0
0.764999 -0.00463788 0
0.762263 -0.0050769 0
0.760325 -0.00552745 0
0.75908 -0.00598704 0
0.758439 -0.00645975 0
0.758334 -0.00694268 0
0.75871 -0.00743997 0
0.759524 -0.00794823 0
0.760742 -0.00847143 0
0.762337 -0.00900565 0
0.76429 -0.00955449 0
0.766583 -0.0101135 0
0.769206 -0.0106857 0
0.77215 -0.011266 0
0.775408 -0.011857 0
0.778978 -0.0124528 0
0.782855 -0.0130551 0
0.787039 -0.0136576 0
0.791528 -0.0142611 0
0.796323 -0.0148586 0
0.801424 -0.01545 0
0.80683 -0.0160278 0
0.812541 -0.0165909 0
0.818556 -0.0171315 0
0.824875 -0.0176477 0
0.831495 -0.0181312 0
0.838413 -0.0185796 0
0.845626 -0.0189847 0
0.853128 -0.0193436 0
0.860912 -0.0196482 0
0.868972 -0.0198957 0
0.877298 -0.0200787 0
0.885879 -0.0201946 0
0.894704 -0.0202369 0
0.903758 -0.0202038 0
0.913027 -0.02009 0
0.922495 -0.0198949 0
0.932143 -0.0196146 0
0.941954 -0.01925 0
0.951906 -0.0187991 0
0.961979 -0.0182642 0
0.97215 -0.0176452 0
0.982397 -0.0169461 0
0.992696 -0.0161688 0
1.00302 -0.0153188 0
1.01335 -0.0143997 0
1.02367 -0.0134184 0
1.03393 -0.0123801 0
1.04413 -0.0112928 0
1.05423 -0.0101631 0
1.06421 -0.00899939 0
1.07404 -0.00780932 0
1.08372 -0.0066017 0
1.0932 -0.00538456 0
1.10247 -0.00416661 0
1.11151 -0.00295605 0
1.1203 -0.00176105 0
1.12881 -0.00058961 0
1.13704 0.000551034 0
1.14495 0.00165335 0
1.15254 0.00271137 0
1.15979 0.00371827 0
1.16668 0.00466964 0
1.17321 0.00555951 0
1.17935 0.00638527 0
1.1851 0.0071419 0
1.19046 0.00782874 0
1.1954 0.00844175 0
1.19994 0.00898233 0
1.20405 0.00944736 0
1.20775 0.00984031 0
1.21102 0.0101589 0
1.21387 0.0104087 0
1.21631 0.0105879 0
1.21833 0.0107042 0
1.21994 0.0107562 0
1.22115 0.0107531 0
1.22197 0.010694 0
1.22242 0.0105894 0
1.22249 0.0104384 0
1.22221 0.0102526 0
1.2216 0.0100307 0
1.22067 0.00978529 0
1.21944 0.00951425 0
1.21793 0.00923072 0
1.21616 0.00893175 0
1.21416 0.00863061 0
1.21193 0.0083233 0
1.20952 0.00802297 0
1.20693 0.00772446 0
1.20419 0.00744055 0
1.20132 0.00716492 0
1.19834 0.00690977 0
1.19528 0.00666772 0
1.19214 0.00645025 0
1.18896 0.00624906 0
1.18574 0.00607484 0
1.18251 0.00591858 0
1.17927 0.00579009 0
1.17604 0.00567997 0
1.17283 0.00559714 0
1.16966 0.00553203 0
1.16653 0.00549267 0
1.16344 0.00546966 0
1.16041 0.00547007 0
1.15744 0.00548496 0
1.15453 0.00552046 0
1.15169 0.00556832 0
1.14892 0.00563368 0
1.14622 0.00570924 0
1.14358 0.00579912 0
1.14102 0.00589711 0
1.13852 0.00600629 0
1.13609 0.00612171 0
1.13372 0.00624536 0
1.13142 0.00637364 0
1.12917 0.00650741 0