# vtk DataFile Version 3.0
Flow field at step 1000
ASCII
DATASET STRUCTURED_GRID
DIMENSIONS 200 100 1
POINTS 20000 float
0.005 0.005 0
0.015 0.005 0
0.025 0.005 0
0.035 0.005 0
0.045 0.005 0
0.055 0.005 0
0.065 0.005 0
0.075 0.005 0
0.085 0.005 0
0.095 0.005 0
0.105 0.005 0
0.115 0.005 0
0.125 0.005 0
0.135 0.005 0
0.145 0.005 0
0.155 0.005 0
0.165 0.005 0
0.175 0.005 0
0.185 0.005 0
0.195 0.005 0
0.205 0.005 0
0.215 0.005 0
0.225 0.005 0
0.235 0.005 0
0.245 0.005 0
0.255 0.005 0
0.265 0.005 0
0.275 0.005 0
0.285 0.005 0
0.295 0.005 0
0.305 0.005 0
0.315 0.005 0
0.325 0.005 0
0.335 0.005 0
0.345 0.005 0
0.355 0.005 0
0.365 0.005 0
0.375 0.005 0
0.385 0.005 0
0.395 0.005 0
0.405 0.005 0
0.415 0.005 0
0.425 0.005 0
0.435 0.005 0
0.445 0.005 0
0.455 0.005 0
0.465 0.005 0
0.475 0.005 0
0.485 0.005 0
0.495 0.005 0
0.505 0.005 0
0.515 0.005 0
0.525 0.005 0
0.535 0.005 0
0.545 0.005 0
0.555 0.005 0
0.565 0.005 0
0.575 0.005 0
0.585 0.005 0
0.595 0.005 0
0.605 0.005 0
0.615 0.005 0
0.625 0.005 0
0.635 0.005 0
0.645 0.005 0
0.655 0.005 0
0.665 0.005 0
0.675 0.005 0
0.685 0.005 0
0.695 0.005 0
0.705 0.005 0
0.715 0.005 0
0.725 0.005 0
0.735 0.005 0
0.745 0.005 0
0.755 0.005 0
0.765 0.005 0
0.775 0.005 0
0.785 0.005 0
0.795 0.005 0
0.805 0.005 0
0.815 0.005 0
0.825 0.005 0
0.835 0.005 0
0.845 0.005 0
0.855 0.005 0
0.865 0.005 0
0.875 0.005 0
0.885 0.005 0
0.895 0.005 0
0.905 0.005 0
0.915 0.005 0
0.925 0.005 0
0.935 0.005 0
0.945 0.005 0
0.955 0.005 0
0.965 0.005 0
0.975 0.005 0
0.985 0.005 0
0.995 0.005 0
1.005 0.005 0
1.015 0.005 0
1.025 0.005 0
1.035 0.005 0
1.045 0.005 0
1.055 0.005 0
1.065 0.005 0
1.075 0.005 0
1.085 0.005 0
1.095 0.005 0
1.105 0.005 0
1.115 0.005 0
1.125 0.005 0
1.135 0.005 0
1.145 0.005 0
1.155 0.005 0
1.165 0.005 0
1.175 0.005 0
1.185 0.005 0
1.195 0.005 0
1.205 0.005 0
1.215 0.005 0
1.225 0.005 0
1.235 0.005 0
1.245 0.005 0
1.255 0.005 0
1.265 0.005 0
1.275 0.005 0
1.285 0.005 0
1.295 0.005 0
1.305 0.005 0
1.315 0.005 0
1.325 0.005 0
1.335 0.005 0
1.345 0.005 0
1.355 0.005 0
1.365 0.005 0
1.375 0.005 0
1.385 0.005 0
1.395 0.005 0
1.405 0.005 0
1.415 0.005 0
1.425 0.005 0
1.435 0.005 0
1.445 0.005 0
1.455 0.005 0
1.465 0.005 0
1.475 0.005 0
1.485 0.005 0
1.495 0.005 0
1.505 0.005 0
1.515 0.005 0
1.525 0.005 0
1.535 0.005 0
1.545 0.005 0
1.555 0.005 0
1.565 0.005 0
1.575 0.005 0
1.585 0.005 0
1.595 0.005 0
1.605 0.005 0
1.615 0.005 0
1.625 0.005 0
1.635 0.005 0
1.645 0.005 0
1.655 0.005 0
1.665 0.005 0
1.675 0.005 0
1.685 0.005 0
1.695 0.005 0
1.705 0.005 0
1.715 0.005 0
1.725 0.005 0
1.735 0.005 0
1.745 0.005 0
1.755 0.005 0
1.765 0.005 0
1.775 0.005 0
1.785 0.005 0
1.795 0.005 0
1.805 0.005 0
1.815 0.005 0
1.825 0.005 0
1.835 0.005 0
1.845 0.005 0
1.855 0.005 0
1.865 0.005 0
1.875 0.005 0
1.885 0.005 0
1.895 0.005 0
1.905 0.005 0
1.915 0.005 0
1.925 0.005 0
1.935 0.005 0
1.945 0.005 0
1.955 0.005 0
1.965 0.005 0
1.975 0.005 0
1.985 0.005 0
1.995 0.005 0
0.005 0.015 0
0.015 0.015 0
0.025 0.015 0
0.035 0.015 0
0.045 0.015 0
0.055 0.015 0
0.065 0.015 0
0.075 0.015 0
0.085 0.015 0
0.095 0.015 0
0.105 0.015 0
0.115 0.015 0
0.125 0.015 0
0.135 0.015 0
0.145 0.015 0
0.155 0.015 0
0.165 0.015 0
0.175 0.015 0
0.185 0.015 0
0.195 0.015 0
0.205 0.015 0
0.215 0.015 0
0.225 0.015 0
0.235 0.015 0
0.245 0.015 0
0.255 0.015 0
0.265 0.015 0
0.275 0.015 0
0.285 0.015 0
0.295 0.015 0
0.305 0.015 0
0.315 0.015 0
0.325 0.015 0
0.335 0.015 0
0.345 0.015 0
0.355 0.015 0
0.365 0.015 0
0.375 0.015 0
0.385 0.015 0
0.395 0.015 0
0.405 0.015 0
0.415 0.015 0
0.425 0.015 0
0.435 0.015 0
0.445 0.015 0
0.455 0.015 0
0.465 0.015 0
0.475 0.015 0
0.485 0.015 0
0.495 0.015 0
0.505 0.015 0
0.515 0.015 0
0.525 0.015 0
0.535 0.015 0
0.545 0.015 0
0.555 0.015 0
0.565 0.015 0
0.575 0.015 0
0.585 0.015 0
0.595 0.015 0
0.605 0.015 0
0.615 0.015 0
0.625 0.015 0
0.635 0.015 0
0.645 0.015 0
0.655 0.015 0
0.665 0.015 0
0.675 0.015 0
0.685 0.015 0
0.695 0.015 0
0.705 0.015 0
0.715 0.015 0
0.725 0.015 0
0.735 0.015 0
0.745 0.015 0
0.755 0.015 0
0.765 0.015 0
0.775 0.015 0
0.785 0.015 0
0.795 0.015 0
0.805 0.015 0
0.815 0.015 0
0.825 0.015 0
0.835 0.015 0
0.845 0.015 0
0.855 0.015 0
0.865 0.015 0
0.875 0.015 0
0.885 0.015 0
0.895 0.015 0
0.905 0.015 0
0.915 0.015 0
0.925 0.015 0
0.935 0.015 0
0.945 0.015 0
0.955 0.015 0
0.965 0.015 0
0.975 0.015 0
0.985 0.015 0
0.995 0.015 0
1.005 0.015 0
1.015 0.015 0
1.025 0.015 0
1.035 0.015 0
1.045 0.015 0
1.055 0.015 0
1.065 0.015 0
1.075 0.015 0
1.085 0.015 0
1.095 0.015 0
1.105 0.015 0
1.115 0.015 0
1.125 0.015 0
1.135 0.015 0
1.145 0.015 0
1.155 0.015 0
1.165 0.015 0
1.175 0.015 0
1.185 0.015 0
1.195 0.015 0
1.205 0.015 0
1.215 0.015 0
1.225 0.015 0
1.235 0.015 0
1.245 0.015 0
1.255 0.015 0
1.265 0.015 0
1.275 0.015 0
1.285 0.015 0
1.295 0.015 0
1.305 0.015 0
1.315 0.015 0
1.325 0.015 0
1.335 0.015 0
1.345 0.015 0
1.355 0.015 0
1.365 0.015 0
1.375 0.015 0
1.385 0.015 0
1.395 0.015 0
1.405 0.015 0
1.415 0.015 0
1.425 0.015 0
1.435 0.015 0
1.445 0.015 0
1.455 0.015 0
1.465 0.015 0
1.475 0.015 0
1.485 0.015 0
1.495 0.015 0
1.505 0.015 0
1.515 0.015 0
1.525 0.015 0
1.535 0.015 0
1.545 0.015 0
1.555 0.015 0
1.565 0.015 0
1.575 0.015 0
1.585 0.015 0
1.595 0.015 0
1.605 0.015 0
1.615 0.015 0
1.625 0.015 0
1.635 0.015 0
1.645 0.015 0
1.655 0.015 0
1.665 0.015 0
1.675 0.015 0
1.685 0.015 0
1.695 0.015 0
1.705 0.015 0
1.715 0.015 0
1.725 0.015 0
1.735 0.015 0
1.745 0.015 0
1.755 0.015 0
1.765 0.015 0
1.775 0.015 0
1.785 0.015 0
1.795 0.015 0
1.805 0.015 0
1.815 0.015 0
1.825 0.015 0
1.835 0.015 0
1.845 0.015 0
1.855 0.015 0
1.865 0.015 0
1.875 0.015 0
1.885 0.015 0
1.895 0.015 0
1.905 0.015 0
1.915 0.015 0
1.925 0.015 0
1.935 0.015 0
1.945 0.015 0
1.955 0.015 0
1.965 0.015 0
1.975 0.015 0
1.985 0.015 0
1.995 0.015 0
0.005 0.025 0
0.015 0.025 0
0.025 0.025 0
0.035 0.025 0
0.045 0.025 0
0.055 0.025 0
0.065 0.025 0
0.075 0.025 0
0.085 0.025 0
0.095 0.025 0
0.105 0.025 0
0.115 0.025 0
0.125 0.025 0
0.135 0.025 0
0.145 0.025 0
0.155 0.025 0
0.165 0.025 0
0.175 0.025 0
0.185 0.025 0
0.195 0.025 0
0.205 0.025 0
0.215 0.025 0
0.225 0.025 0
0.235 0.025 0
0.245 0.025 0
0.255 0.025 0
0.265 0.025 0
0.275 0.025 0
0.285 0.025 0
0.295 0.025 0
0.305 0.025 0
0.315 0.025 0
0.325 0.025 0
0.335 0.025 0
0.345 0.025 0
0.355 0.025 0
0.365 0.025 0
0.375 0.025 0
0.385 0.025 0
0.395 0.025 0
0.405 0.025 0
0.415 0.025 0
0.425 0.025 0
0.435 0.025 0
0.445 0.025 0
0.455 0.025 0
0.465 0.025 0
0.475 0.025 0
0.485 0.025 0
0.495 0.025 0
0.505 0.025 0
0.515 0.025 0
0.525 0.025 0
0.535 0.025 0
0.545 0.025 0
0.555 0.025 0
0.565 0.025 0
0.575 0.025 0
0.585 0.025 0
0.595 0.025 0
0.605 0.025 0
0.615 0.025 0
0.625 0.025 0
0.635 0.025 0
0.645 0.025 0
0.655 0.025 0
0.665 0.025 0
0.675 0.025 0
0.685 0.025 0
0.695 0.025 0
0.705 0.025 0
0.715 0.025 0
0.725 0.025 0
0.735 0.025 0
0.745 0.025 0
0.755 0.025 0
0.765 0.025 0
0.775 0.025 0
0.785 0.025 0
0.795 0.025 0
0.805 0.025 0
0.815 0.025 0
0.825 0.025 0
0.835 0.025 0
0.845 0.025 0
0.855 0.025 0
0.865 0.025 0
0.875 0.025 0
0.885 0.025 0
0.895 0.025 0
0.905 0.025 0
0.915 0.025 0
0.925 0.025 0
0.935 0.025 0
0.945 0.025 0
0.955 0.025 0
0.965 0.025 0
0.975 0.025 0
0.985 0.025 0
0.995 0.025 0
1.005 0.025 0
1.015 0.025 0
1.025 0.025 0
1.035 0.025 0
1.045 0.025 0
1.055 0.025 0
1.065 0.025 0
1.075 0.025 0
1.085 0.025 0
1.095 0.025 0
1.105 0.025 0
1.115 0.025 0
1.125 0.025 0
1.135 0.025 0
1.145 0.025 0
1.155 0.025 0
1.165 0.025 0
1.175 0.025 0
1.185 0.025 0
1.195 0.025 0
1.205 0.025 0
1.215 0.025 0
1.225 0.025 0
1.235 0.025 0
1.245 0.025 0
1.255 0.025 0
1.265 0.025 0
1.275 0.025 0
1.285 0.025 0
1.295 0.025 0
1.305 0.025 0
1.315 0.025 0
1.325 0.025 0
1.335 0.025 0
1.345 0.025 0
1.355 0.025 0
1.365 0.025 0
1.375 0.025 0
1.385 0.025 0
1.395 0.025 0
1.405 0.025 0
1.415 0.025 0
1.425 0.025 0
1.435 0.025 0
1.445 0.025 0
1.455 0.025 0
1.465 0.025 0
1.475 0.025 0
1.485 0.025 0
1.495 0.025 0
1.505 0.025 0
1.515 0.025 0
1.525 0.025 0
1.535 0.025 0
1.545 0.025 0
1.555 0.025 0
1.565 0.025 0
1.575 0.025 0
1.585 0.025 0
1.595 0.025 0
1.605 0.025 0
1.615 0.025 0
1.625 0.025 0
1.635 0.025 0
1.645 0.025 0
1.655 0.025 0
1.665 0.025 0
1.675 0.025 0
1.685 0.025 0
1.695 0.025 0
1.705 0.025 0
1.715 0.025 0
1.725 0.025 0
1.735 0.025 0
1.745 0.025 0
1.755 0.025 0
1.765 0.025 0
1.775 0.025 0
1.785 0.025 0
1.795 0.025 0
1.805 0.025 0
1.815 0.025 0
1.825 0.025 0
1.835 0.025 0
1.845 0.025 0
1.855 0.025 0
1.865 0.025 0
1.875 0.025 0
1.885 0.025 0
1.895 0.025 0
1.905 0.025 0
1.915 0.025 0
1.925 0.025 0
1.935 0.025 0
1.945 0.025 0
1.955 0.025 0
1.965 0.025 0
1.975 0.025 0
1.985 0.025 0
1.995 0.025 0
0.005 0.035 0
0.015 0.035 0
0.025 0.035 0
0.035 0.035 0
0.045 0.035 0
0.055 0.035 0
0.065 0.035 0
0.075 0.035 0
0.085 0.035 0
0.095 0.035 0
0.105 0.035 0
0.115 0.035 0
0.125 0.035 0
0.135 0.035 0
0.145 0.035 0
0.155 0.035 0
0.165 0.035 0
0.175 0.035 0
0.185 0.035 0
0.195 0.035 0
0.205 0.035 0
0.215 0.035 0
0.225 0.035 0
0.235 0.035 0
0.245 0.035 0
0.255 0.035 0
0.265 0.035 0
0.275 0.035 0
0.285 0.035 0
0.295 0.035 0
0.305 0.035 0
0.315 0.035 0
0.325 0.035 0
0.335 0.035 0
0.345 0.035 0
0.355 0.035 0
0.365 0.035 0
0.375 0.035 0
0.385 0.035 0
0.395 0.035 0
0.405 0.035 0
0.415 0.035 0
0.425 0.035 0
0.435 0.035 0
0.445 0.035 0
0.455 0.035 0
0.465 0.035 0
0.475 0.035 0
0.485 0.035 0
0.495 0.035 0
0.505 0.035 0
0.515 0.035 0
0.525 0.035 0
0.535 0.035 0
0.545 0.035 0
0.555 0.035 0
0.565 0.035 0
0.575 0.035 0
0.585 0.035 0
0.595 0.035 0
0.605 0.035 0
0.615 0.035 0
0.625 0.035 0
0.635 0.035 0
0.645 0.035 0
0.655 0.035 0
0.665 0.035 0
0.675 0.035 0
0.685 0.035 0
0.695 0.035 0
0.705 0.035 0
0.715 0.035 0
0.725 0.035 0
0.735 0.035 0
0.745 0.035 0
0.755 0.035 0
0.765 0.035 0
0.775 0.035 0
0.785 0.035 0
0.795 0.035 0
0.805 0.035 0
0.815 0.035 0
0.825 0.035 0
0.835 0.035 0
0.845 0.035 0
0.855 0.035 0
0.865 0.035 0
0.875 0.035 0
0.885 0.035 0
0.895 0.035 0
0.905 0.035 0
0.915 0.035 0
0.925 0.035 0
0.935 0.035 0
0.945 0.035 0
0.955 0.035 0
0.965 0.035 0
0.975 0.035 0
0.985 0.035 0
0.995 0.035 0
1.005 0.035 0
1.015 0.035 0
1.025 0.035 0
1.035 0.035 0
1.045 0.035 0
[...]
POINT_DATA 20000
VECTORS velocity float
0.968699 -1.98727e-05 0
0.941419 -4.54654e-05 0
0.917691 -7.53066e-05 0
0.897068 -0.000109358 0
0.879135 -0.000145616 0
0.863527 -0.0001852 0
0.849925 -0.000225434 0
0.838057 -0.000268633 0
0.827693 -0.000311383 0
0.818645 -0.000357108 0
0.810754 -0.000401669 0
0.80389 -0.000449437 0
0.797947 -0.00049563 0
0.792838 -0.000545353 0
0.788492 -0.000593316 0
0.784849 -0.000645125 0
0.781859 -0.00069515 0
0.779484 -0.000749252 0
0.777687 -0.000801644 0
0.776441 -0.000858208 0
0.77572 -0.000913187 0
0.775503 -0.000972256 0
0.775772 -0.00102987 0
0.776512 -0.0010913 0
0.777707 -0.00115137 0
0.779346 -0.00121475 0
0.781417 -0.00127681 0
0.783911 -0.00134146 0
0.786819 -0.00140474 0
0.790132 -0.00146966 0
0.793843 -0.00153304 0
0.797946 -0.00159692 0
0.802432 -0.00165896 0
0.807295 -0.00172015 0
0.812529 -0.00177908 0
0.818127 -0.00183565 0
0.824082 -0.00188945 0
0.830386 -0.00193923 0
0.837032 -0.00198566 0
0.84401 -0.00202636 0
0.851311 -0.00206309 0
0.858926 -0.00209237 0
0.866843 -0.00211709 0
0.87505 -0.0021327 0
0.883533 -0.00214329 0
0.89228 -0.00214324 0
0.901275 -0.00213789 0
0.910501 -0.00212059 0
0.919942 -0.00209797 0
0.929579 -0.00206237 0
0.939393 -0.00202176 0
0.949363 -0.00196746 0
0.95947 -0.00190883 0
0.96969 -0.00183616 0
0.980002 -0.00176022 0
0.990383 -0.00167024 0
1.00081 -0.00157847 0
1.01126 -0.00147298 0
1.0217 -0.00136754 0
1.03212 -0.00124897 0
1.04249 -0.00113265 0
1.05278 -0.00100398 0
1.06297 -0.000880013 0
1.07304 -0.000744608 0
1.08296 -0.000616571 0
1.09271 -0.000478021 0
1.10227 -0.000349642 0
1.11162 -0.000211598 0
1.12072 -8.6592e-05 0
1.12958 4.73963e-05 0
1.13815 0.000165485 0
1.14644 0.000292123 0
1.1544 0.000400062 0
1.16204 0.000516444 0
1.16933 0.000611436 0
1.17626 0.00071515 0
1.18282 0.000794936 0
1.18898 0.000884153 0
1.19475 0.000947084 0
1.20011 0.00102062 0
1.20505 0.0010657 0
1.20957 0.00112303 0
1.21366 0.00114996 0
1.21731 0.00119126 0
1.22053 0.0012004 0
1.22332 0.00122647 0
1.22567 0.00121884 0
1.22759 0.00123109 0
1.22909 0.00120825 0
1.23017 0.00120861 0
1.23084 0.00117263 0
1.23111 0.00116341 0
1.231 0.00111672 0
1.23053 0.00110051 0
1.22969 0.00104576 0
1.22853 0.00102527 0
1.22704 0.00096519 0
1.22525 0.000943094 0
1.22319 0.000880351 0
1.22087 0.000859162 0
1.21832 0.000796232 0
1.21555 0.000778172 0
1.21259 0.000717224 0
1.20946 0.000704138 0
1.20618 0.000646962 0
1.20278 0.000640258 0
1.19926 0.000588226 0
1.19566 0.000588856 0
1.19198 0.00054291 0
1.18825 0.000551385 0
1.18447 0.00051206 0
1.18067 0.000528487 0
1.17686 0.000495958 0
1.17304 0.000520098 0
1.16922 0.00049424 0
1.16542 0.000525577 0
1.16165 0.000506027 0
1.1579 0.000543839 0
1.15418 0.000530065 0
1.15049 0.00057349 0
1.14684 0.000564851 0
1.14324 0.000612944 0
1.13967 0.000608738 0
1.13615 0.000660524 0
1.13266 0.000660031 0
1.12921 0.000714539 0
1.12581 0.000717052 0
1.12243 0.000773344 0
1.1191 0.000778186 0
1.11579 0.000835378 0
1.11252 0.000841918 0
1.10927 0.000899189 0
1.10605 0.000906844 0
1.10285 0.000963446 0
1.09967 0.000971685 0
1.09651 0.00102694 0
1.09337 0.00103529 0
1.09025 0.0010886 0
1.08714 0.00109661 0
1.08404 0.00114745 0
1.08095 0.00115474 0
1.07787 0.00120265 0
1.0748 0.00120886 0
1.07174 0.00125347 0
1.06869 0.00125827 0
1.06565 0.00129926 0
1.06261 0.00130236 0
1.05959 0.00133948 0
1.05657 0.00134062 0
1.05356 0.00137371 0
1.05057 0.00137266 0
1.04759 0.00140159 0
1.04462 0.00139814 0
1.04166 0.00142288 0
1.03873 0.00141687 0
1.03581 0.00143743 0
1.03291 0.0014287 0
1.03003 0.00144517 0
1.02718 0.00143361 0
1.02435 0.00144613 0
1.02155 0.00143168 0
1.01878 0.00144043 0
1.01605 0.00142305 0
1.01334 0.00142827 0
1.01067 0.00140797 0
1.00804 0.00140994 0
1.00545 0.00138676 0
1.0029 0.00138578 0
1.0004 0.00135981 0
0.997941 0.00135621 0
0.99553 0.00132757 0
0.993167 0.00132169 0
0.990854 0.00129054 0
0.988593 0.00128274 0
0.986385 0.00124927 0
0.984231 0.00123989 0
0.982133 0.00120432 0
0.980091 0.0011937 0
0.978106 0.00115626 0
0.97618 0.00114471 0
0.974312 0.00110567 0
0.972505 0.00109346 0
0.970759 0.00105308 0
0.969074 0.00104048 0
0.967452 0.000999003 0
0.965894 0.000986219 0
0.9644 0.00094391 0
0.962972 0.000931117 0
0.961612 0.000888228 0
0.960321 0.000875567 0
0.9591 0.000832401 0
0.957952 0.000820003 0
0.956879 0.000777056 0
0.955883 0.000765102 0
0.954968 0.000723451 0
0.954134 0.000712331 0
0.953388 0.000674628 0
0.952736 0.000665375 0
0.9522 0.000638296 0
0.95184 0.000633712 0
0.968687 -5.97191e-05 0
0.941396 -0.000136003 0
0.91766 -0.000226295 0
0.89703 -0.00032713 0
0.879092 -0.00043755 0
0.863481 -0.000554033 0
0.849875 -0.000677335 0
0.838004 -0.000803703 0
0.827639 -0.000935484 0
0.818589 -0.00106855 0
0.810696 -0.0012066 0
0.803831 -0.00134506 0
0.797887 -0.00148867 0
0.792776 -0.00163244 0
0.788428 -0.00178185 0
0.784783 -0.00193155 0
0.781792 -0.00208741 0
0.779414 -0.00224387 0
0.777615 -0.0024069 0
0.776365 -0.00257084 0
0.775642 -0.0027415 0
0.775422 -0.00291325 0
0.775689 -0.0030915 0
0.776426 -0.00327079 0
0.777619 -0.00345592 0
0.779255 -0.00364173 0
0.781324 -0.00383219 0
0.783816 -0.00402259 0
0.786723 -0.00421594 0
0.790035 -0.00440806 0
0.793746 -0.00460084 0
0.797849 -0.00479079 0
0.802336 -0.0049786 0
0.807201 -0.0051615 0
0.812438 -0.00533898 0
0.81804 -0.00550909 0
0.823999 -0.00567008 0
0.830309 -0.00582092 0
0.836961 -0.00595867 0
0.843946 -0.00608333 0
0.851256 -0.00619081 0
0.858879 -0.00628224 0
0.866806 -0.0063525 0
0.875024 -0.00640397 0
0.883519 -0.00643059 0
0.892278 -0.00643612 0
0.901286 -0.00641365 0
0.910525 -0.00636846 0
0.919979 -0.0062929 0
0.929629 -0.00619386 0
0.939455 -0.00606301 0
0.949438 -0.00590894 0
0.959557 -0.00572269 0
0.969789 -0.00551462 0
0.980112 -0.00527511 0
0.990502 -0.00501634 0
1.00094 -0.00472794 0
1.01139 -0.00442395 0
1.02184 -0.00409313 0
1.03226 -0.00375136 0
1.04263 -0.00338638 0
1.05293 -0.00301592 0
1.06312 -0.00262644 0
1.07318 -0.00223756 0
1.0831 -0.00183419 0
1.09284 -0.00143784 0
1.1024 -0.00103162 0
1.11173 -0.000638964 0
1.12083 -0.000240866 0
1.12967 0.000137235 0
1.13823 0.000516779 0
1.14649 0.00087022 0
1.15444 0.00122175 0
1.16206 0.00154158 0
1.16933 0.00185697 0
1.17624 0.00213571 0
1.18277 0.00240847 0
1.18892 0.0026404 0
1.19466 0.00286588 0
1.2 0.0030472 0
1.20491 0.00322273 0
1.20941 0.00335166 0
1.21347 0.00347662 0
1.2171 0.00355343 0
1.2203 0.00362921 0
1.22306 0.00365612 0
1.22539 0.003686 0
1.22729 0.00366705 0
1.22876 0.00365598 0
1.22982 0.0035968 0
1.23048 0.00355113 0
1.23074 0.00345855 0
1.23061 0.00338565 0
1.23012 0.00326737 0
1.22927 0.00317523 0
1.22809 0.00303938 0
1.22659 0.00293612 0
1.2248 0.00279079 0
1.22273 0.00268429 0
1.2204 0.00253714 0
1.21784 0.00243462 0
1.21507 0.00229251 0
1.2121 0.00220019 0
1.20897 0.00206892 0
1.20569 0.00199182 0
1.20228 0.00187594 0
1.19877 0.00181779 0
1.19516 0.00172055 0
1.19149 0.00168373 0
1.18775 0.00160708 0
1.18398 0.00159271 0
1.18018 0.00153747 0
1.17637 0.00154558 0
1.17255 0.00151151 0
1.16874 0.00154121 0
1.16494 0.00152731 0
1.16116 0.00157697 0
1.15741 0.00158161 0
1.1537 0.00164912 0
1.15001 0.00167025 0
1.14637 0.00175314 0
1.14276 0.00178848 0
1.1392 0.00188413 0
1.13568 0.00193127 0
1.13219 0.00203702 0
1.12875 0.00209358 0
1.12534 0.00220681 0
1.12197 0.00227045 0
1.11864 0.00238867 0
1.11533 0.00245721 0
1.11206 0.00257809 0
1.10882 0.0026495 0
1.1056 0.00277089 0
1.1024 0.00284332 0
1.09923 0.00296326 0
1.09608 0.00303502 0
1.09294 0.00315176 0
1.08982 0.00322135 0
1.08671 0.00333334 0
1.08361 0.00339939 0
1.08053 0.00350525 0
1.07745 0.00356657 0
1.07439 0.00366511 0
1.07134 0.00372065 0
1.06829 0.00381085 0
1.06525 0.00385967 0
1.06222 0.00394069 0
1.0592 0.003982 0
1.05619 0.00405315 0
1.05319 0.00408627 0
1.0502 0.00414704 0
1.04723 0.00417144 0
1.04427 0.00422147 0
1.04132 0.0042367 0
1.03839 0.00427579 0
1.03548 0.00428158 0
1.03259 0.00430969 0
1.02972 0.00430586 0
1.02687 0.0043231 0
1.02405 0.0043096 0
1.02126 0.00431623 0
1.01849 0.00429316 0
1.01576 0.00428957 0
1.01307 0.00425712 0
1.01041 0.00424383 0
1.00778 0.00420233 0
1.0052 0.00417997 0
1.00266 0.00412986 0
1.00016 0.00409914 0
0.997712 0.00404096 0
0.995308 0.0040027 0
0.992952 0.00393707 0
0.990646 0.0038921 0
0.988392 0.00381972 0
0.986191 0.00376895 0
0.984044 0.00369058 0
0.981952 0.00363489 0
0.979917 0.00355132 0
0.977938 0.00349161 0
0.976018 0.00340364 0
0.974157 0.00334076 0
0.972356 0.00324919 0
0.970615 0.00318394 0
0.968936 0.00308955 0
0.967319 0.00302265 0
0.965766 0.00292616 0
0.964277 0.00285824 0
0.962854 0.00276033 0
0.961498 0.00269196 0
0.960211 0.00259331 0
0.958994 0.00252506 0
0.957851 0.00242653 0
0.956781 0.00235918 0
0.955789 0.00226238 0
0.954876 0.00219753 0
0.954045 0.00210619 0
0.953301 0.00204773 0
0.952652 0.00197131 0
0.952117 0.00192933 0
0.951759 0.00189164 0
0.968661 -9.93227e-05 0
0.94135 -0.000226602 0
0.917598 -0.000376353 0
0.896954 -0.000545026 0
0.879007 -0.000727687 0
0.863387 -0.000923028 0
0.849776 -0.0011265 0
0.8379 -0.00133894 0
0.827531 -0.00155593 0
0.818477 -0.00178014 0
0.810582 -0.00200705 0
0.803713 -0.00224078 0
0.797766 -0.00247658 0
0.792653 -0.0027196 0
0.788301 -0.00296481 0
0.784652 -0.003218 0
0.781656 -0.00347388 0
0.779273 -0.00373852 0
0.777469 -0.00400642 0
0.776215 -0.00428357 0
0.775486 -0.0045644 0
0.775261 -0.00485452 0
0.775522 -0.00514835 0
0.776254 -0.00545087 0
0.777441 -0.00575663 0
0.779073 -0.00606975 0
0.781138 -0.00638498 0
0.783626 -0.0067054 0
0.78653 -0.0070261 0
0.789841 -0.00734893 0
0.793551 -0.00766942 0
0.797654 -0.00798811 0
0.802144 -0.00830103 0
0.807013 -0.00860738 0
0.812255 -0.00890381 0
0.817864 -0.00918816 0
0.823832 -0.0094578 0
0.830152 -0.00970927 0
0.836817 -0.00994082 0
0.843817 -0.0101478 0
0.851143 -0.0103294 0
0.858786 -0.0104801 0
0.866732 -0.0106002 0
0.874972 -0.0106831 0
0.88349 -0.0107309 0
0.892273 -0.0107362 0
0.901306 -0.0107025 0
0.910571 -0.0106221 0
0.920051 -0.0105003 0
0.929727 -0.0103289 0
0.93958 -0.0101153 0
0.949588 -0.00985093 0
0.959731 -0.00954541 0
0.969986 -0.00918991 0
0.98033 -0.00879614 0
0.990739 -0.00835502 0
1.00119 -0.00788045 0
1.01166 -0.00736292 0
1.02212 -0.00681851 0
1.03255 -0.00623706 0
1.04293 -0.00563678 0
1.05322 -0.0050066 0
1.06341 -0.00436679 0
1.07347 -0.00370503 0
1.08338 -0.00304357 0
1.09311 -0.00236851 0
1.10264 -0.00170401 0
1.11196 -0.00103419 0
1.12103 -0.000385132 0
1.12984 0.000261428 0
1.13837 0.000877503 0
1.14661 0.0014841 0
1.15452 0.00205129 0
1.1621 0.0026032 0
1.16933 0.00310783 0
1.17619 0.00359284 0
1.18268 0.004024 0
1.18878 0.00443283 0
1.19448 0.0047827 0
1.19976 0.0051093 0
1.20463 0.00537339 0
1.20908 0.00561509 0
1.21309 0.0057923 0
1.21667 0.00594985 0
1.21982 0.00604243 0
1.22254 0.00611981 0
1.22482 0.00613319 0
1.22668 0.00613736 0
1.22811 0.00607976 0
1.22914 0.00602026 0
1.22975 0.0059022 0
1.22998 0.00579054 0
1.22982 0.00562427 0
1.2293 0.00547333 0
1.22842 0.00527211 0
1.22722 0.00509539 0
1.2257 0.00487276 0
1.22388 0.00468364 0
1.22179 0.00445273 0
1.21945 0.0042638 0
1.21688 0.00403667 0
1.2141 0.00385915 0
1.21113 0.00364627 0
1.20799 0.00348953 0
1.2047 0.0032994 0
1.20129 0.00317073 0
1.19777 0.00300973 0
1.19417 0.00291421 0
1.19049 0.00278654 0
1.18676 0.0027271 0
1.18299 0.00263492 0
1.17919 0.00261254 0
1.17538 0.00255619 0
1.17157 0.00257019 0
1.16776 0.00254852 0
1.16397 0.00259685 0
1.16019 0.00260753 0
1.15645 0.00268713 0
1.15273 0.002727 0
1.14906 0.00283413 0
1.14542 0.00289947 0
1.14182 0.00303 0
1.13825 0.00311681 0
1.13474 0.00326641 0
1.13126 0.00337062 0
1.12782 0.00353499 0
1.12441 0.00365261 0
1.12105 0.00382758 0
1.11772 0.00395478 0
1.11442 0.00413642 0
1.11115 0.00426963 0
1.10792 0.00445429 0
1.1047 0.00459022 0
1.10151 0.00477457 0
1.09835 0.00491022 0
1.0952 0.00509124 0
1.09207 0.00522392 0
1.08895 0.0053989 0
1.08585 0.00552619 0
1.08277 0.00569275 0
1.07969 0.00581249 0
1.07663 0.00596852 0
1.07357 0.00607882 0
1.07053 0.0062225 0
1.06749 0.00632171 0
1.06446 0.00645149 0
1.06144 0.00653818 0
1.05844 0.00665278 0
1.05544 0.00672575 0
1.05245 0.00682415 0
1.04947 0.00688242 0
1.04651 0.00696385 0
1.04356 0.00700665 0
1.04063 0.0070706 0
1.03771 0.00709739 0
1.03481 0.00714361 0
1.03194 0.00715406 0
1.02908 0.00718255 0
1.02625 0.00717655 0
1.02344 0.00718753 0
1.02067 0.00716521 0
1.01792 0.00715913 0
1.0152 0.00712081 0
1.01252 0.00709837 0
1.00988 0.00704457 0
1.00727 0.00700662 0
1.0047 0.00693806 0
1.00217 0.00688567 0
0.999691 0.00680324 0
0.997254 0.00673758 0
0.994864 0.00664232 0
0.992522 0.00656472 0
0.990231 0.0064578 0
0.987991 0.00636965 0
0.985803 0.00625232 0
0.983669 0.00615506 0
0.981591 0.00602867 0
0.979568 0.00592375 0
0.977603 0.00578965 0
0.975695 0.00567851 0
0.973846 0.00553806 0
0.972056 0.00542205 0
0.970327 0.00527657 0
0.968659 0.00515697 0
0.967053 0.00500768 0
0.965509 0.00488563 0
0.964031 0.00473368 0
0.962617 0.00461021 0
0.961271 0.00445665 0
0.959992 0.00433272 0
0.958784 0.00417874 0
0.957647 0.00405547 0
0.956585 0.00390283 0
0.955599 0.00378217 0
0.954693 0.0036346 0
0.953867 0.00352109 0
0.953129 0.00338775 0
0.952483 0.00329288 0
0.951952 0.00319713 0
0.951596 0.0031503 0
0.968624 -0.000138882 0
0.941281 -0.000316478 0
0.917504 -0.000526217 0
0.896841 -0.000761164 0
0.878878 -0.0010174 0
0.863247 -0.00128906 0
0.849626 -0.00157496 0
0.837743 -0.00186997 0
0.827368 -0.00217536 0
0.81831 -0.00248635 0
0.810409 -0.00280616 0
0.803537 -0.00313012 0
0.797585 -0.00346285 0
0.792467 -0.00379959 0
0.78811 -0.0041459 0
0.784455 -0.00449682 0
0.781453 -0.00485839 0
0.779063 -0.00522542 0
0.777251 -0.00560402 0
0.775989 -0.00598883 0
0.775252 -0.00638566 0
0.775018 -0.006789 0
0.775271 -0.00720407 0
0.775994 -0.0076253 0
0.777174 -0.00805704 0
0.778798 -0.00849373 0
0.780857 -0.00893861 0
0.78334 -0.00938624 0
0.786239 -0.00983858 0
0.789547 -0.0102904 0
0.793257 -0.0107421 0
0.797361 -0.0111889 0
0.801853 -0.0116296 0
0.806727 -0.0120598 0
0.811978 -0.012477 0
0.817597 -0.0128771 0
0.823579 -0.0132561 0
0.829915 -0.0136106 0
0.836599 -0.0139355 0
0.843621 -0.0142281 0
0.850973 -0.0144821 0
0.858642 -0.014696 0
0.866619 -0.0148626 0
0.874891 -0.0149818 0
0.883444 -0.0150458 0
0.892264 -0.0150561 0
0.901334 -0.0150046 0
0.910638 -0.0148947 0
0.920157 -0.0147181 0
0.929872 -0.0144806 0
0.939764 -0.0141739 0
0.94981 -0.0138062 0
0.959989 -0.0133693 0
0.970278 -0.0128739 0
0.980654 -0.012312 0
0.991092 -0.0116971 0
1.00157 -0.0110208 0
1.01206 -0.0102994 0
1.02254 -0.00952443 0
1.03298 -0.00871437 0
1.04336 -0.00786045 0
1.05366 -0.0069834 0
1.06384 -0.00607359 0
1.07389 -0.00515391 0
1.08379 -0.00421342 0
1.0935 -0.00327702 0
1.10301 -0.00233199 0
1.11229 -0.00140511 0
1.12133 -0.000481428 0
1.1301 0.000410518 0
1.13858 0.00128837 0
1.14676 0.00212186 0
1.15462 0.00293178 0
1.16214 0.00368612 0
1.16931 0.00440924 0
1.17611 0.00506731 0
1.18253 0.00568867 0
1.18856 0.00623754 0
1.19418 0.00674656 0
1.1994 0.00717782 0
1.2042 0.00756862 0
1.20856 0.00787865 0
1.21251 0.00815011 0
1.21602 0.00834003 0
1.2191 0.00849571 0
1.22174 0.0085712 0
1.22396 0.00861903 0
1.22575 0.00858991 0
1.22713 0.00854166 0
1.22809 0.00842131 0
1.22865 0.0082919 0
1.22882 0.00809646 0
1.22862 0.00790312 0
1.22805 0.00765056 0
1.22714 0.00741183 0
1.22589 0.00712098 0
1.22434 0.00685571 0
1.2225 0.00654523 0
1.22039 0.0062716 0
1.21802 0.00595905 0
1.21543 0.00569364 0
1.21263 0.00539467 0
1.20965 0.00515182 0
1.2065 0.00487955 0
1.20322 0.00467083 0
1.1998 0.00443551 0
1.19628 0.00426947 0
1.19267 0.00407832 0
1.189 0.00396047 0
1.18527 0.00381778 0
1.1815 0.00375081 0
1.17771 0.00365817 0
1.1739 0.00364225 0
1.17009 0.00359898 0
1.16629 0.00363217 0
1.1625 0.00363572 0
1.15873 0.00371449 0
1.15499 0.00376093 0
1.15129 0.00388055 0
1.14761 0.00396501 0
1.14398 0.00412003 0
1.14039 0.00423708 0
1.13683 0.00442164 0
1.13332 0.00456561 0
1.12985 0.00477375 0
1.12641 0.00493897 0
1.12302 0.00516485 0
1.11966 0.00534582 0
1.11634 0.00558386 0
1.11305 0.0057754 0
1.10979 0.00602037 0
1.10656 0.00621767 0
1.10336 0.00646475 0
1.10017 0.0066634 0
1.09702 0.00690822 0
1.09388 0.00710423 0
1.09076 0.00734283 0
1.08766 0.00753262 0
1.08457 0.00776148 0
1.08149 0.00794184 0
1.07843 0.00815786 0
1.07538 0.00832597 0
1.07234 0.00852641 0
1.06931 0.00867978 0
1.06629 0.00886232 0
1.06328 0.00899881 0
1.06028 0.00916146 0
1.05729 0.00927924 0
1.0543 0.00942038 0
1.05134 0.00951795 0
1.04838 0.00963633 0
1.04543 0.00971248 0
1.04251 0.00980718 0
1.03959 0.00986103 0
1.0367 0.00993148 0
1.03382 0.00996247 0
1.03096 0.0100085 0
1.02813 0.0100163 0
1.02532 0.0100379 0
1.02254 0.0100227 0
1.01978 0.0100204 0
1.01705 0.00998252 0
1.01436 0.00995706 0
1.0117 0.00989705 0
1.00908 0.00984946 0
1.00649 0.0097683 0
1.00395 0.00969987 0
1.00144 0.00959873 0
0.998983 0.00951098 0
0.996568 0.00939125 0
0.994199 0.00928589 0
0.991879 0.00914916 0
0.989609 0.00902804 0
0.98739 0.00887604 0
0.985222 0.00874112 0
0.98311 0.00857568 0
0.98105 0.00842896 0
0.979048 0.008252 0
0.9771 0.00809548 0
0.975212 0.00790891 0
0.97338 0.00774453 0
0.971609 0.00755022 0
0.969896 0.00737982 0
0.968245 0.00717954 0
0.966654 0.00700482 0
0.965127 0.00680022 0
0.963662 0.00662269 0
0.962264 0.00641528 0
0.96093 0.00623632 0
0.959665 0.00602758 0
0.958468 0.00584861 0
0.957344 0.00564041 0
0.956292 0.00546349 0
0.955316 0.00525917 0
0.954418 0.00508852 0
0.953602 0.00489592 0
0.95287 0.00474195 0
0.952231 0.00458086 0
0.951706 0.00447031 0
0.951353 0.00439085 0
0.968573 -0.000178055 0
0.94119 -0.000406071 0
0.91738 -0.000674588 0
0.896691 -0.000976573 0
0.878708 -0.00130421 0
0.86306 -0.00165379 0
0.849427 -0.00201896 0
0.837535 -0.00239907 0
0.827152 -0.00278878 0
0.818087 -0.00318999 0
0.81018 -0.00359788 0
0.803302 -0.00401629 0
0.797344 -0.0044406 0
0.792219 -0.00487594 0
0.787854 -0.00531767 0
0.784191 -0.00577169 0
0.781181 -0.00623317 0
0.778781 -0.00670829 0
0.776959 -0.00719199 0
0.775687 -0.00769029 0
0.774938 -0.00819788 0
0.774694 -0.00872027 0
0.774934 -0.00925194 0
0.775647 -0.00979754 0
0.776815 -0.0103514 0
0.77843 -0.010917 0
0.780479 -0.0114886 0
0.782955 -0.0120684 0
0.785849 -0.0126505 0
0.789153 -0.0132356 0
0.792861 -0.0138178 0
0.796966 -0.0143963 0
0.801462 -0.0149653 0
0.806344 -0.0155222 0
0.811604 -0.0160616 0
0.817238 -0.0165792 0
0.823237 -0.0170701 0
0.829595 -0.0175284 0
0.836304 -0.0179499 0
0.843356 -0.0183275 0
0.85074 -0.0186579 0
0.858447 -0.0189329 0
0.866464 -0.0191506 0
0.87478 -0.0193022 0
0.883379 -0.0193872 0
0.892247 -0.0193968 0
0.901367 -0.0193325 0
0.910723 -0.0191853 0
0.920294 -0.0189593 0
0.930062 -0.0186459 0
0.940005 -0.0182517 0
0.950102 -0.0177686 0
0.960329 -0.0172062 0
0.970664 -0.0165571 0
0.981081 -0.0158336 0
0.991557 -0.015029 0
1.00207 -0.0141586 0
1.01258 -0.0132159 0
1.02308 -0.0122191 0
1.03354 -0.0111616 0
1.04393 -0.0100645 0
1.05423 -0.00892051 0
1.06441 -0.00775318 0
1.07445 -0.00655445 0
1.08432 -0.00534989 0
1.094 -0.00412999 0
1.10347 -0.00292222 0
1.11272 -0.00171507 0
1.1217 -0.000537695 0
1.13042 0.000624012 0
1.13884 0.00173932 0
1.14695 0.00282546 0
1.15474 0.00385021 0
1.16218 0.00483444 0
1.16926 0.00574444 0
1.17598 0.00660513 0
1.1823 0.0073813 0
1.18824 0.00810231 0
1.19377 0.00873127 0
1.19889 0.00930237 0
1.20358 0.00977683 0
1.20786 0.0101939 0
1.2117 0.0105128 0
1.21512 0.0107779 0
1.2181 0.0109459 0
1.22066 0.0110669 0
1.22278 0.0110946 0
1.22449 0.0110845 0
1.22578 0.0109872 0
1.22667 0.0108635 0
1.22715 0.0106604 0
1.22726 0.010444 0
1.22699 0.0101574 0
1.22637 0.00987145 0
1.2254 0.00952492 0
1.22411 0.00919356 0
1.22251 0.00881128 0
1.22063 0.00845821 0
1.21849 0.00806333 0
1.2161 0.00771077 0
1.21348 0.00732446 0
1.21067 0.00699211 0
1.20767 0.00663262 0
1.20451 0.00633691 0
1.20121 0.00601901 0
1.19779 0.00577266 0
1.19427 0.00550731 0
1.19066 0.00531917 0
1.18698 0.00511351 0
1.18326 0.0049887 0
1.17949 0.00484633 0
1.17571 0.00478656 0
1.17191 0.00470788 0
1.16811 0.00471196 0
1.16431 0.00469478 0
1.16053 0.00475916 0
1.15677 0.00479926 0
1.15304 0.00491866 0
1.14934 0.00501033 0
1.14568 0.00517826 0
1.14205 0.00531487 0
1.13847 0.00552414 0