# vtk DataFile Version 3.0
Flow field at step 300
ASCII
DATASET STRUCTURED_GRID
DIMENSIONS 200 100 1
POINTS 20000 float
0.005 0.005 0
0.015 0.005 0
0.025 0.005 0
0.035 0.005 0
0.045 0.005 0
0.055 0.005 0
0.065 0.005 0
0.075 0.005 0
0.085 0.005 0
0.095 0.005 0
0.105 0.005 0
0.115 0.005 0
0.125 0.005 0
0.135 0.005 0
0.145 0.005 0
0.155 0.005 0
0.165 0.005 0
0.175 0.005 0
0.185 0.005 0
0.195 0.005 0
0.205 0.005 0
0.215 0.005 0
0.225 0.005 0
0.235 0.005 0
0.245 0.005 0
0.255 0.005 0
0.265 0.005 0
0.275 0.005 0
0.285 0.005 0
0.295 0.005 0
0.305 0.005 0
0.315 0.005 0
0.325 0.005 0
0.335 0.005 0
0.345 0.005 0
0.355 0.005 0
0.365 0.005 0
0.375 0.005 0
0.385 0.005 0
0.395 0.005 0
0.405 0.005 0
0.415 0.005 0
0.425 0.005 0
0.435 0.005 0
0.445 0.005 0
0.455 0.005 0
0.465 0.005 0
0.475 0.005 0
0.485 0.005 0
0.495 0.005 0
0.505 0.005 0
0.515 0.005 0
0.525 0.005 0
0.535 0.005 0
0.545 0.005 0
0.555 0.005 0
0.565 0.005 0
0.575 0.005 0
0.585 0.005 0
0.595 0.005 0
0.605 0.005 0
0.615 0.005 0
0.625 0.005 0
0.635 0.005 0
0.645 0.005 0
0.655 0.005 0
0.665 0.005 0
0.675 0.005 0
0.685 0.005 0
0.695 0.005 0
0.705 0.005 0
0.715 0.005 0
0.725 0.005 0
0.735 0.005 0
0.745 0.005 0
0.755 0.005 0
0.765 0.005 0
0.775 0.005 0
0.785 0.005 0
0.795 0.005 0
0.805 0.005 0
0.815 0.005 0
0.825 0.005 0
0.835 0.005 0
0.845 0.005 0
0.855 0.005 0
0.865 0.005 0
0.875 0.005 0
0.885 0.005 0
0.895 0.005 0
0.905 0.005 0
0.915 0.005 0
0.925 0.005 0
0.935 0.005 0
0.945 0.005 0
0.955 0.005 0
0.965 0.005 0
0.975 0.005 0
0.985 0.005 0
0.995 0.005 0
1.005 0.005 0
1.015 0.005 0
1.025 0.005 0
1.035 0.005 0
1.045 0.005 0
1.055 0.005 0
1.065 0.005 0
1.075 0.005 0
1.085 0.005 0
1.095 0.005 0
1.105 0.005 0
1.115 0.005 0
1.125 0.005 0
1.135 0.005 0
1.145 0.005 0
1.155 0.005 0
1.165 0.005 0
1.175 0.005 0
1.185 0.005 0
1.195 0.005 0
1.205 0.005 0
1.215 0.005 0
1.225 0.005 0
1.235 0.005 0
1.245 0.005 0
1.255 0.005 0
1.265 0.005 0
1.275 0.005 0
1.285 0.005 0
1.295 0.005 0
1.305 0.005 0
1.315 0.005 0
1.325 0.005 0
1.335 0.005 0
1.345 0.005 0
1.355 0.005 0
1.365 0.005 0
1.375 0.005 0
1.385 0.005 0
1.395 0.005 0
1.405 0.005 0
1.415 0.005 0
1.425 0.005 0
1.435 0.005 0
1.445 0.005 0
1.455 0.005 0
1.465 0.005 0
1.475 0.005 0
1.485 0.005 0
1.495 0.005 0
1.505 0.005 0
1.515 0.005 0
1.525 0.005 0
1.535 0.005 0
1.545 0.005 0
1.555 0.005 0
1.565 0.005 0
1.575 0.005 0
1.585 0.005 0
1.595 0.005 0
1.605 0.005 0
1.615 0.005 0
1.625 0.005 0
1.635 0.005 0
1.645 0.005 0
1.655 0.005 0
1.665 0.005 0
1.675 0.005 0
1.685 0.005 0
1.695 0.005 0
1.705 0.005 0
1.715 0.005 0
1.725 0.005 0
1.735 0.005 0
1.745 0.005 0
1.755 0.005 0
1.765 0.005 0
1.775 0.005 0
1.785 0.005 0
1.795 0.005 0
1.805 0.005 0
1.815 0.005 0
1.825 0.005 0
1.835 0.005 0
1.845 0.005 0
1.855 0.005 0
1.865 0.005 0
1.875 0.005 0
1.885 0.005 0
1.895 0.005 0
1.905 0.005 0
1.915 0.005 0
1.925 0.005 0
1.935 0.005 0
1.945 0.005 0
1.955 0.005 0
1.965 0.005 0
1.975 0.005 0
1.985 0.005 0
1.995 0.005 0
0.005 0.015 0
0.015 0.015 0
0.025 0.015 0
0.035 0.015 0
0.045 0.015 0
0.055 0.015 0
0.065 0.015 0
0.075 0.015 0
0.085 0.015 0
0.095 0.015 0
0.105 0.015 0
0.115 0.015 0
0.125 0.015 0
0.135 0.015 0
0.145 0.015 0
0.155 0.015 0
0.165 0.015 0
0.175 0.015 0
0.185 0.015 0
0.195 0.015 0
0.205 0.015 0
0.215 0.015 0
0.225 0.015 0
0.235 0.015 0
0.245 0.015 0
0.255 0.015 0
0.265 0.015 0
0.275 0.015 0
0.285 0.015 0
0.295 0.015 0
0.305 0.015 0
0.315 0.015 0
0.325 0.015 0
0.335 0.015 0
0.345 0.015 0
0.355 0.015 0
0.365 0.015 0
0.375 0.015 0
0.385 0.015 0
0.395 0.015 0
0.405 0.015 0
0.415 0.015 0
0.425 0.015 0
0.435 0.015 0
0.445 0.015 0
0.455 0.015 0
0.465 0.015 0
0.475 0.015 0
0.485 0.015 0
0.495 0.015 0
0.505 0.015 0
0.515 0.015 0
0.525 0.015 0
0.535 0.015 0
0.545 0.015 0
0.555 0.015 0
0.565 0.015 0
0.575 0.015 0
0.585 0.015 0
0.595 0.015 0
0.605 0.015 0
0.615 0.015 0
0.625 0.015 0
0.635 0.015 0
0.645 0.015 0
0.655 0.015 0
0.665 0.015 0
0.675 0.015 0
0.685 0.015 0
0.695 0.015 0
0.705 0.015 0
0.715 0.015 0
0.725 0.015 0
0.735 0.015 0
0.745 0.015 0
0.755 0.015 0
0.765 0.015 0
0.775 0.015 0
0.785 0.015 0
0.795 0.015 0
0.805 0.015 0
0.815 0.015 0
0.825 0.015 0
0.835 0.015 0
0.845 0.015 0
0.855 0.015 0
0.865 0.015 0
0.875 0.015 0
0.885 0.015 0
0.895 0.015 0
0.905 0.015 0
0.915 0.015 0
0.925 0.015 0
0.935 0.015 0
0.945 0.015 0
0.955 0.015 0
0.965 0.015 0
0.975 0.015 0
0.985 0.015 0
0.995 0.015 0
1.005 0.015 0
1.015 0.015 0
1.025 0.015 0
1.035 0.015 0
1.045 0.015 0
1.055 0.015 0
1.065 0.015 0
1.075 0.015 0
1.085 0.015 0
1.095 0.015 0
1.105 0.015 0
1.115 0.015 0
1.125 0.015 0
1.135 0.015 0
1.145 0.015 0
1.155 0.015 0
1.165 0.015 0
1.175 0.015 0
1.185 0.015 0
1.195 0.015 0
1.205 0.015 0
1.215 0.015 0
1.225 0.015 0
1.235 0.015 0
1.245 0.015 0
1.255 0.015 0
1.265 0.015 0
1.275 0.015 0
1.285 0.015 0
1.295 0.015 0
1.305 0.015 0
1.315 0.015 0
1.325 0.015 0
1.335 0.015 0
1.345 0.015 0
1.355 0.015 0
1.365 0.015 0
1.375 0.015 0
1.385 0.015 0
1.395 0.015 0
1.405 0.015 0
1.415 0.015 0
1.425 0.015 0
1.435 0.015 0
1.445 0.015 0
1.455 0.015 0
1.465 0.015 0
1.475 0.015 0
1.485 0.015 0
1.495 0.015 0
1.505 0.015 0
1.515 0.015 0
1.525 0.015 0
1.535 0.015 0
1.545 0.015 0
1.555 0.015 0
1.565 0.015 0
1.575 0.015 0
1.585 0.015 0
1.595 0.015 0
1.605 0.015 0
1.615 0.015 0
1.625 0.015 0
1.635 0.015 0
1.645 0.015 0
1.655 0.015 0
1.665 0.015 0
1.675 0.015 0
1.685 0.015 0
1.695 0.015 0
1.705 0.015 0
1.715 0.015 0
1.725 0.015 0
1.735 0.015 0
1.745 0.015 0
1.755 0.015 0
1.765 0.015 0
1.775 0.015 0
1.785 0.015 0
1.795 0.015 0
1.805 0.015 0
1.815 0.015 0
1.825 0.015 0
1.835 0.015 0
1.845 0.015 0
1.855 0.015 0
1.865 0.015 0
1.875 0.015 0
1.885 0.015 0
1.895 0.015 0
1.905 0.015 0
1.915 0.015 0
1.925 0.015 0
1.935 0.015 0
1.945 0.015 0
1.955 0.015 0
1.965 0.015 0
1.975 0.015 0
1.985 0.015 0
1.995 0.015 0
0.005 0.025 0
0.015 0.025 0
0.025 0.025 0
0.035 0.025 0
0.045 0.025 0
0.055 0.025 0
0.065 0.025 0
0.075 0.025 0
0.085 0.025 0
0.095 0.025 0
0.105 0.025 0
0.115 0.025 0
0.125 0.025 0
0.135 0.025 0
0.145 0.025 0
0.155 0.025 0
0.165 0.025 0
0.175 0.025 0
0.185 0.025 0
0.195 0.025 0
0.205 0.025 0
0.215 0.025 0
0.225 0.025 0
0.235 0.025 0
0.245 0.025 0
0.255 0.025 0
0.265 0.025 0
0.275 0.025 0
0.285 0.025 0
0.295 0.025 0
0.305 0.025 0
0.315 0.025 0
0.325 0.025 0
0.335 0.025 0
0.345 0.025 0
0.355 0.025 0
0.365 0.025 0
0.375 0.025 0
0.385 0.025 0
0.395 0.025 0
0.405 0.025 0
0.415 0.025 0
0.425 0.025 0
0.435 0.025 0
0.445 0.025 0
0.455 0.025 0
0.465 0.025 0
0.475 0.025 0
0.485 0.025 0
0.495 0.025 0
0.505 0.025 0
0.515 0.025 0
0.525 0.025 0
0.535 0.025 0
0.545 0.025 0
0.555 0.025 0
0.565 0.025 0
0.575 0.025 0
0.585 0.025 0
0.595 0.025 0
0.605 0.025 0
0.615 0.025 0
0.625 0.025 0
0.635 0.025 0
0.645 0.025 0
0.655 0.025 0
0.665 0.025 0
0.675 0.025 0
0.685 0.025 0
0.695 0.025 0
0.705 0.025 0
0.715 0.025 0
0.725 0.025 0
0.735 0.025 0
0.745 0.025 0
0.755 0.025 0
0.765 0.025 0
0.775 0.025 0
0.785 0.025 0
0.795 0.025 0
0.805 0.025 0
0.815 0.025 0
0.825 0.025 0
0.835 0.025 0
0.845 0.025 0
0.855 0.025 0
0.865 0.025 0
0.875 0.025 0
0.885 0.025 0
0.895 0.025 0
0.905 0.025 0
0.915 0.025 0
0.925 0.025 0
0.935 0.025 0
0.945 0.025 0
0.955 0.025 0
0.965 0.025 0
0.975 0.025 0
0.985 0.025 0
0.995 0.025 0
1.005 0.025 0
1.015 0.025 0
1.025 0.025 0
1.035 0.025 0
1.045 0.025 0
1.055 0.025 0
1.065 0.025 0
1.075 0.025 0
1.085 0.025 0
1.095 0.025 0
1.105 0.025 0
1.115 0.025 0
1.125 0.025 0
1.135 0.025 0
1.145 0.025 0
1.155 0.025 0
1.165 0.025 0
1.175 0.025 0
1.185 0.025 0
1.195 0.025 0
1.205 0.025 0
1.215 0.025 0
1.225 0.025 0
1.235 0.025 0
1.245 0.025 0
1.255 0.025 0
1.265 0.025 0
1.275 0.025 0
1.285 0.025 0
1.295 0.025 0
1.305 0.025 0
1.315 0.025 0
1.325 0.025 0
1.335 0.025 0
1.345 0.025 0
1.355 0.025 0
1.365 0.025 0
1.375 0.025 0
1.385 0.025 0
1.395 0.025 0
1.405 0.025 0
1.415 0.025 0
1.425 0.025 0
1.435 0.025 0
1.445 0.025 0
1.455 0.025 0
1.465 0.025 0
1.475 0.025 0
1.485 0.025 0
1.495 0.025 0
1.505 0.025 0
1.515 0.025 0
1.525 0.025 0
1.535 0.025 0
1.545 0.025 0
1.555 0.025 0
1.565 0.025 0
1.575 0.025 0
1.585 0.025 0
1.595 0.025 0
1.605 0.025 0
1.615 0.025 0
1.625 0.025 0
1.635 0.025 0
1.645 0.025 0
1.655 0.025 0
1.665 0.025 0
1.675 0.025 0
1.685 0.025 0
1.695 0.025 0
1.705 0.025 0
1.715 0.025 0
1.725 0.025 0
1.735 0.025 0
1.745 0.025 0
1.755 0.025 0
1.765 0.025 0
1.775 0.025 0
1.785 0.025 0
1.795 0.025 0
1.805 0.025 0
1.815 0.025 0
1.825 0.025 0
1.835 0.025 0
1.845 0.025 0
1.855 0.025 0
1.865 0.025 0
1.875 0.025 0
1.885 0.025 0
1.895 0.025 0
1.905 0.025 0
1.915 0.025 0
1.925 0.025 0
1.935 0.025 0
1.945 0.025 0
1.955 0.025 0
1.965 0.025 0
1.975 0.025 0
1.985 0.025 0
1.995 0.025 0
0.005 0.035 0
0.015 0.035 0
0.025 0.035 0
0.035 0.035 0
0.045 0.035 0
0.055 0.035 0
0.065 0.035 0
0.075 0.035 0
0.085 0.035 0
0.095 0.035 0
0.105 0.035 0
0.115 0.035 0
0.125 0.035 0
0.135 0.035 0
0.145 0.035 0
0.155 0.035 0
0.165 0.035 0
0.175 0.035 0
0.185 0.035 0
0.195 0.035 0
0.205 0.035 0
0.215 0.035 0
0.225 0.035 0
0.235 0.035 0
0.245 0.035 0
0.255 0.035 0
0.265 0.035 0
0.275 0.035 0
0.285 0.035 0
0.295 0.035 0
0.305 0.035 0
0.315 0.035 0
0.325 0.035 0
0.335 0.035 0
0.345 0.035 0
0.355 0.035 0
0.365 0.035 0
0.375 0.035 0
0.385 0.035 0
0.395 0.035 0
0.405 0.035 0
0.415 0.035 0
0.425 0.035 0
0.435 0.035 0
0.445 0.035 0
0.455 0.035 0
0.465 0.035 0
0.475 0.035 0
0.485 0.035 0
0.495 0.035 0
0.505 0.035 0
0.515 0.035 0
0.525 0.035 0
0.535 0.035 0
0.545 0.035 0
0.555 0.035 0
0.565 0.035 0
0.575 0.035 0
0.585 0.035 0
0.595 0.035 0
0.605 0.035 0
0.615 0.035 0
0.625 0.035 0
0.635 0.035 0
0.645 0.035 0
0.655 0.035 0
0.665 0.035 0
0.675 0.035 0
0.685 0.035 0
0.695 0.035 0
0.705 0.035 0
0.715 0.035 0
0.725 0.035 0
0.735 0.035 0
0.745 0.035 0
0.755 0.035 0
0.765 0.035 0
0.775 0.035 0
0.785 0.035 0
0.795 0.035 0
0.805 0.035 0
0.815 0.035 0
0.825 0.035 0
0.835 0.035 0
0.845 0.035 0
0.855 0.035 0
0.865 0.035 0
0.875 0.035 0
0.885 0.035 0
0.895 0.035 0
0.905 0.035 0
0.915 0.035 0
0.925 0.035 0
0.935 0.035 0
0.945 0.035 0
0.955 0.035 0
0.965 0.035 0
0.975 0.035 0
0.985 0.035 0
0.995 0.035 0
1.005 0.035 0
1.015 0.035 0
1.025 0.035 0
1.035 0.035 0
1.045 0.035 0
[...]
POINT_DATA 20000
VECTORS velocity float
0.99998 -6.89472e-07 0
0.99996 -1.55489e-06 0
0.999938 -2.85927e-06 0
0.999913 -4.20782e-06 0
0.999882 -6.38545e-06 0
0.999844 -8.45414e-06 0
0.999797 -1.19812e-05 0
0.999738 -1.51867e-05 0
0.999665 -2.07966e-05 0
0.999575 -2.57629e-05 0
0.999464 -3.45113e-05 0
0.999329 -4.2116e-05 0
0.999164 -5.54579e-05 0
0.998965 -6.6883e-05 0
0.998727 -8.67474e-05 0
0.998443 -0.00010352 0
0.998107 -0.000132362 0
0.997714 -0.000156368 0
0.997256 -0.000197168 0
0.996727 -0.000230609 0
0.99612 -0.0002868 0
0.99543 -0.000332081 0
0.994651 -0.000407358 0
0.99378 -0.000466863 0
0.992813 -0.000564862 0
0.991752 -0.000640637 0
0.990595 -0.000764475 0
0.989349 -0.000857799 0
0.988016 -0.00100952 0
0.986612 -0.00112043 0
0.985143 -0.00130038 0
0.98363 -0.00142724 0
0.982088 -0.00163358 0
0.980543 -0.00177272 0
0.979015 -0.00200107 0
0.977536 -0.00214674 0
0.976129 -0.00239018 0
0.974828 -0.00253475 0
0.973659 -0.00278413 0
0.972656 -0.00291863 0
0.971843 -0.00316331 0
0.971249 -0.00327817 0
0.970895 -0.00350695 0
0.970804 -0.0035929 0
0.97099 -0.00379502 0
0.971468 -0.00384395 0
0.972243 -0.00401007 0
0.97332 -0.0040157 0
0.974696 -0.00413857 0
0.976366 -0.00409693 0
0.978317 -0.00417188 0
0.980535 -0.00408145 0
0.983002 -0.00410651 0
0.985693 -0.00396816 0
0.988585 -0.00394394 0
0.991649 -0.00376066 0
0.994855 -0.00369007 0
0.998171 -0.00346659 0
1.00157 -0.0033544 0
1.005 -0.00309677 0
1.00846 -0.00294913 0
1.01188 -0.00266425 0
1.01526 -0.00248823 0
1.01855 -0.00218345 0
1.02173 -0.00198661 0
1.02476 -0.00166931 0
1.02762 -0.00145931 0
1.03029 -0.00113667 0
1.03274 -0.000920936 0
1.03496 -0.000599614 0
1.03693 -0.000385112 0
1.03864 -7.10964e-05 0
1.04007 0.000135876 0
1.04121 0.000437409 0
1.04207 0.000631349 0
1.04264 0.000916114 0
1.04291 0.00109239 0
1.0429 0.00135703 0
1.04261 0.00151193 0
1.04204 0.00175399 0
1.04121 0.0018847 0
1.04013 0.00210264 0
1.03881 0.00220723 0
1.03727 0.00240028 0
1.03553 0.00247764 0
1.03361 0.00264578 0
1.03153 0.00269555 0
1.0293 0.00283936 0
1.02696 0.00286183 0
1.02452 0.00298239 0
1.02201 0.00297838 0
1.01944 0.00307716 0
1.01684 0.00304796 0
1.01424 0.00312669 0
1.01164 0.00307392 0
1.00909 0.00313451 0
1.00658 0.00306004 0
1.00414 0.00310446 0
1.00179 0.00301036 0
0.999535 0.00304057 0
0.997399 0.00292901 0
0.99539 0.00294694 0
0.993517 0.00282018 0
0.991791 0.00282764 0
0.990217 0.00268799 0
0.988802 0.00268668 0
0.987547 0.00253652 0
0.986455 0.00252799 0
0.985526 0.00236972 0
0.984758 0.00235539 0
0.984149 0.00219147 0
0.983693 0.00217261 0
0.983385 0.00200551 0
0.983219 0.00198326 0
0.983186 0.0018155 0
0.983276 0.00179086 0
0.983483 0.00162491 0
0.983792 0.00159878 0
0.984197 0.00143704 0
0.984684 0.00141023 0
0.985243 0.00125497 0
0.985862 0.00122816 0
0.986532 0.00108143 0
0.987239 0.00105524 0
0.987977 0.00091881 0
0.98873 0.000893749 0
0.989496 0.000769048 0
0.990259 0.000745549 0
0.991017 0.000633581 0
0.991759 0.000611984 0
0.992482 0.000513313 0
0.993176 0.000493865 0
0.993843 0.0004086 0
0.994472 0.000391452 0
0.995067 0.000319266 0
0.99562 0.000304472 0
0.996135 0.000244654 0
0.996607 0.000232177 0
0.99704 0.0001837 0
0.997432 0.000173424 0
0.997786 0.000135037 0
0.998101 0.000126779 0
0.998383 9.71011e-05 0
0.998629 9.06319e-05 0
0.998847 6.82464e-05 0
0.999035 6.33098e-05 0
0.999198 4.68487e-05 0
0.999337 4.31818e-05 0
0.999456 3.13887e-05 0
0.999556 2.87393e-05 0
0.999641 2.05126e-05 0
0.999711 1.86515e-05 0
0.999769 1.30669e-05 0
0.999816 1.17966e-05 0
0.999855 8.10923e-06 0
0.999886 7.26702e-06 0
0.999912 4.90005e-06 0
0.999932 4.35793e-06 0
0.999948 2.88145e-06 0
0.99996 2.54277e-06 0
0.99997 1.64816e-06 0
0.999977 1.44287e-06 0
0.999983 9.16549e-07 0
0.999987 7.95865e-07 0
0.999991 4.9532e-07 0
0.999993 4.26527e-07 0
0.999995 2.60015e-07 0
0.999997 2.22003e-07 0
0.999998 1.32527e-07 0
0.999998 1.12175e-07 0
0.999999 6.55582e-08 0
0.999999 5.50012e-08 0
0.999999 3.14619e-08 0
1 2.61585e-08 0
1 1.46421e-08 0
1 1.20627e-08 0
1 6.60553e-09 0
1 5.39127e-09 0
1 2.88754e-09 0
1 2.33445e-09 0
1 1.22263e-09 0
1 9.78929e-10 0
1 5.01229e-10 0
1 3.97396e-10 0
1 1.98876e-10 0
1 1.5611e-10 0
1 7.63426e-11 0
1 5.93201e-11 0
1 2.8341e-11 0
1 2.17956e-11 0
1 1.01708e-11 0
1 7.74024e-12 0
1 3.52711e-12 0
1 2.65578e-12 0
1 1.18151e-12 0
1 8.80088e-13 0
1 3.82667e-13 0
1 2.82516e-13 0
1 1.25353e-13 0
1 9.87459e-14 0
0.999979 -2.01281e-06 0
0.999959 -4.84989e-06 0
0.999936 -8.34964e-06 0
0.99991 -1.31163e-05 0
0.999878 -1.86583e-05 0
0.999839 -2.63249e-05 0
0.99979 -3.50398e-05 0
0.99973 -4.72258e-05 0
0.999655 -6.08848e-05 0
0.999562 -7.99945e-05 0
0.999448 -0.000101152 0
0.999308 -0.000130566 0
0.999139 -0.000162736 0
0.998934 -0.00020702 0
0.99869 -0.000254848 0
0.998398 -0.000319921 0
0.998055 -0.000389292 0
0.99765 -0.000482499 0
0.997182 -0.000580518 0
0.996638 -0.000710521 0
0.996018 -0.000845277 0
0.99531 -0.00102167 0
0.994516 -0.00120172 0
0.993623 -0.0014343 0
0.992639 -0.00166779 0
0.991552 -0.00196546 0
0.990377 -0.0022589 0
0.989103 -0.00262817 0
0.987753 -0.00298499 0
0.98632 -0.00342833 0
0.984835 -0.00384729 0
0.983296 -0.00436156 0
0.981741 -0.00483546 0
0.980174 -0.00541068 0
0.978639 -0.00592563 0
0.977144 -0.00654458 0
0.975737 -0.00708008 0
0.97443 -0.00771885 0
0.97327 -0.00824899 0
0.972271 -0.00887859 0
0.971475 -0.00937397 0
0.970896 -0.0099628 0
0.970569 -0.0103932 0
0.970503 -0.0109099 0
0.970725 -0.0112472 0
0.971236 -0.0116635 0
0.972052 -0.0118839 0
0.973169 -0.0121769 0
0.97459 -0.012263 0
0.976304 -0.0124169 0
0.978301 -0.0123586 0
0.980565 -0.0123655 0
0.983077 -0.0121602 0
0.985814 -0.0120197 0
0.988747 -0.0116721 0
0.991853 -0.0113908 0
0.995097 -0.0109116 0
0.99845 -0.0105021 0
1.00188 -0.00990707 0
1.00535 -0.00938642 0
1.00882 -0.00869463 0
1.01228 -0.00808306 0
1.01567 -0.00731593 0
1.01898 -0.00663549 0
1.02216 -0.00581538 0
1.0252 -0.00508872 0
1.02807 -0.0042379 0
1.03074 -0.00348732 0
1.0332 -0.00262708 0
1.03541 -0.00187366 0
1.03737 -0.00102364 0
1.03907 -0.000286634 0
1.04049 0.000535691 0
1.04162 0.00123931 0
1.04246 0.00201898 0
1.04301 0.0026748 0
1.04327 0.00339956 0
1.04324 0.00399589 0
1.04292 0.00465624 0
1.04233 0.00518415 0
1.04148 0.00577332 0
1.04038 0.00622654 0
1.03904 0.00674033 0
1.03748 0.00711511 0
1.03572 0.00755167 0
1.03377 0.00784655 0
1.03167 0.00820613 0
1.02942 0.00842165 0
1.02706 0.00870626 0
1.02459 0.00884468 0
1.02206 0.00905776 0
1.01947 0.00912268 0
1.01686 0.00926876 0
1.01423 0.00926487 0
1.01163 0.00934925 0
1.00905 0.00928198 0
1.00653 0.00931044 0
1.00407 0.00918574 0
1.00171 0.00916432 0
0.99944 0.0089884 0
0.997292 0.00892318 0
0.99527 0.0087024 0
0.993389 0.0085994 0
0.991652 0.00834016 0
0.99007 0.00820521 0
0.988645 0.00791389 0
0.987384 0.0077526 0
0.986285 0.00743551 0
0.985351 0.00725326 0
0.984578 0.00691667 0
0.983964 0.0067186 0
0.983506 0.00636869 0
0.983195 0.00615968 0
0.983028 0.00580258 0
0.982993 0.00558726 0
0.983085 0.00522895 0
0.98329 0.0050117 0
0.983604 0.00465793 0
0.984009 0.00444283 0
0.984501 0.00409907 0
0.985061 0.00388986 0
0.985688 0.00356113 0
0.986359 0.00336115 0
0.987076 0.00305189 0
0.987815 0.00286403 0
0.988581 0.00257795 0
0.989347 0.00240457 0
0.990123 0.00214454 0
0.990884 0.00198739 0
0.991639 0.00175533 0
0.992364 0.00161557 0
0.993072 0.00141238 0
0.99374 0.00129051 0
0.994383 0.00111614 0
0.99498 0.00101202 0
0.995545 0.000865484 0
0.996063 0.000778422 0
0.996546 0.000657931 0
0.996982 0.000586742 0
0.997383 0.000489892 0
0.997739 0.000433021 0
0.998063 0.000356986 0
0.998346 0.000312635 0
0.998601 0.000254379 0
0.99882 0.000220643 0
0.999013 0.000177115 0
0.999178 0.000152103 0
0.999322 0.000120408 0
0.999442 0.000102348 0
0.999545 7.98717e-05 0
0.999631 6.71773e-05 0
0.999703 5.16635e-05 0
0.999762 4.29832e-05 0
0.999811 3.25664e-05 0
0.999851 2.67951e-05 0
0.999883 1.99942e-05 0
0.999909 1.6265e-05 0
0.99993 1.19497e-05 0
0.999946 9.60874e-06 0
0.999959 6.94874e-06 0
0.999969 5.52178e-06 0
0.999977 3.92955e-06 0
0.999982 3.08521e-06 0
0.999987 2.16005e-06 0
0.99999 1.67528e-06 0
0.999993 1.15366e-06 0
0.999995 8.83676e-07 0
0.999996 5.98403e-07 0
0.999997 4.52602e-07 0
0.999998 3.0132e-07 0
0.999999 2.24996e-07 0
0.999999 1.47231e-07 0
0.999999 1.08516e-07 0
1 6.97807e-08 0
1 5.07564e-08 0
1 3.2067e-08 0
1 2.30143e-08 0
1 1.42822e-08 0
1 1.01121e-08 0
1 6.1628e-09 0
1 4.30381e-09 0
1 2.57535e-09 0
1 1.77362e-09 0
1 1.04183e-09 0
1 7.07451e-10 0
1 4.07847e-10 0
1 2.73017e-10 0
1 1.54441e-10 0
1 1.019e-10 0
1 5.65486e-11 0
1 3.67681e-11 0
1 2.00127e-11 0
1 1.28208e-11 0
1 6.84289e-12 0
1 4.31852e-12 0
1 2.26007e-12 0
1 1.40566e-12 0
1 7.25094e-13 0
1 4.54313e-13 0
1 2.74203e-13 0
0.999978 -3.4381e-06 0
0.999956 -8.06556e-06 0
0.999932 -1.42586e-05 0
0.999904 -2.18143e-05 0
0.99987 -3.18457e-05 0
0.999829 -4.37866e-05 0
0.999777 -5.9762e-05 0
0.999713 -7.85633e-05 0
0.999633 -0.000103754 0
0.999536 -0.000133101 0
0.999414 -0.000172215 0
0.999268 -0.000217287 0
0.999088 -0.000276807 0
0.998873 -0.000344587 0
0.998614 -0.00043308 0
0.998309 -0.000532604 0
0.997945 -0.000660932 0
0.997523 -0.000803381 0
0.997028 -0.000984671 0
0.996462 -0.00118317 0
0.995808 -0.0014324 0
0.995074 -0.00170137 0
0.994238 -0.00203448 0
0.993314 -0.00238848 0
0.992282 -0.00282078 0
0.991161 -0.00327268 0
0.989931 -0.0038167 0
0.988622 -0.00437539 0
0.987215 -0.00503829 0
0.985748 -0.00570602 0
0.984207 -0.00648681 0
0.982639 -0.00725677 0
0.981035 -0.00814402 0
0.979448 -0.00899851 0
0.977875 -0.00996904 0
0.976373 -0.010879 0
0.974944 -0.011898 0
0.973647 -0.012824 0
0.972484 -0.0138472 0
0.971512 -0.0147423 0
0.970735 -0.015719 0
0.970202 -0.0165327 0
0.969914 -0.0174107 0
0.969911 -0.0180935 0
0.970191 -0.0188236 0
0.970779 -0.0193315 0
0.97167 -0.0198719 0
0.972873 -0.02017 0
0.974379 -0.0204895 0
0.976184 -0.0205546 0
0.978272 -0.0206344 0
0.980627 -0.0204557 0
0.98323 -0.0202898 0
0.986053 -0.019869 0
0.989075 -0.0194635 0
0.992259 -0.0188132 0
0.995582 -0.0181848 0
0.999004 -0.0173272 0
1.0025 -0.0165011 0
1.00602 -0.0154652 0
1.00955 -0.0144728 0
1.01305 -0.0132926 0
1.01648 -0.0121693 0
1.01982 -0.0108814 0
1.02303 -0.00966459 0
1.02609 -0.00830632 0
1.02897 -0.00703348 0
1.03164 -0.00564139 0
1.03409 -0.00434851 0
1.0363 -0.00295696 0
1.03825 -0.00167748 0
1.03993 -0.000317626 0
1.04133 0.000918509 0
1.04243 0.00221941 0
1.04324 0.00338633 0
1.04376 0.00460536 0
1.04398 0.00568167 0
1.04391 0.0068005 0
1.04355 0.00776935 0
1.04292 0.00877425 0
1.04202 0.00962333 0
1.04088 0.010505 0
1.03949 0.0112264 0
1.03788 0.0119797 0
1.03608 0.0125693 0
1.03409 0.0131928 0
1.03194 0.0136504 0
1.02965 0.0141459 0
1.02724 0.014474 0
1.02474 0.014846 0
1.02216 0.0150498 0
1.01954 0.0153051 0
1.01688 0.0153918 0
1.01423 0.0155384 0
1.01158 0.0155166 0
1.00897 0.015564 0
1.00642 0.0154433 0
1.00394 0.0154013 0
1.00154 0.0151918 0
0.99925 0.0150708 0
0.997075 0.014783 0
0.995034 0.014593 0
0.993128 0.0142375 0
0.991374 0.0139887 0
0.989772 0.0135758 0
0.988333 0.0132779 0
0.987056 0.0128181 0
0.985945 0.0124805 0
0.984999 0.0119838 0
0.984217 0.0116157 0
0.983596 0.0110921 0
0.98313 0.0107021 0
0.982816 0.0101614 0
0.982644 0.00975785 0
0.98261 0.00920957 0
0.9827 0.00880049 0
0.982911 0.00825391 0
0.983223 0.00784677 0
0.983638 0.00731068 0
0.98413 0.00691248 0
0.984705 0.00639507 0
0.985333 0.00601219 0
0.986023 0.00552085 0
0.986742 0.00515887 0
0.987503 0.00469998 0
0.988271 0.0043636 0
0.989062 0.00394232 0
0.989842 0.00363523 0
0.990628 0.00325532 0
0.991387 0.00298006 0
0.992139 0.00264381 0
0.992851 0.00240177 0
0.993547 0.0021099 0
0.994194 0.00190129 0
0.994816 0.00165307 0
0.995386 0.00147699 0
0.995928 0.00127034 0
0.996415 0.00112492 0
0.996872 0.000956669 0
0.997278 0.000839267 0
0.997653 0.000705401 0
0.997981 0.000612831 0
0.99828 0.000508842 0
0.998537 0.000437612 0
0.99877 0.000358804 0
0.998966 0.000305358 0
0.999141 0.000247134 0
0.999287 0.000208058 0
0.999416 0.00016615 0
0.999521 0.00013833 0
0.999613 0.000108962 0
0.999686 8.96862e-05 0
0.99975 6.96608e-05 0
0.9998 5.66696e-05 0
0.999843 4.33892e-05 0
0.999876 3.48773e-05 0
0.999904 2.63159e-05 0
0.999925 2.08964e-05 0
0.999943 1.55335e-05 0
0.999956 1.21819e-05 0
0.999967 8.91917e-06 0
0.999975 6.90659e-06 0
0.999981 4.97936e-06 0
0.999986 3.8064e-06 0
0.99999 2.7016e-06 0
0.999992 2.03833e-06 0
0.999995 1.42388e-06 0
0.999996 1.06011e-06 0
0.999997 7.28694e-07 0
0.999998 5.35262e-07 0
0.999999 3.61956e-07 0
0.999999 2.62263e-07 0
0.999999 1.74432e-07 0
1 1.24648e-07 0
1 8.15234e-08 0
1 5.74434e-08 0
1 3.69361e-08 0
1 2.56584e-08 0
1 1.62166e-08 0
1 1.1104e-08 0
1 6.8967e-09 0
1 4.65402e-09 0
1 2.84004e-09 0
1 1.88842e-09 0
1 1.13199e-09 0
1 7.41529e-10 0
1 4.36538e-10 0
1 2.81673e-10 0
1 1.62816e-10 0
1 1.03462e-10 0
1 5.87081e-11 0
1 3.67333e-11 0
1 2.04574e-11 0
1 1.26013e-11 0
1 6.88642e-12 0
1 4.17572e-12 0
1 2.24059e-12 0
1 1.3426e-12 0
1 7.28952e-13 0
1 4.90943e-13 0
0.999976 -4.8507e-06 0
0.999952 -1.15785e-05 0
0.999925 -2.01158e-05 0
0.999895 -3.1303e-05 0
0.999858 -4.49223e-05 0
0.999813 -6.2793e-05 0
0.999757 -8.42891e-05 0
0.999687 -0.000112576 0
0.999601 -0.000146313 0
0.999494 -0.000190559 0
0.999365 -0.000242819 0
0.999204 -0.000310806 0
0.999012 -0.000390227 0
0.998778 -0.000492442 0
0.998502 -0.000610425 0
0.99817 -0.000760428 0
0.997784 -0.000931393 0
0.997326 -0.00114595 0
0.996802 -0.00138727 0
0.99619 -0.00168607 0
0.9955 -0.00201747 0
0.994707 -0.00242213 0
0.993828 -0.00286441 0
0.992836 -0.00339679 0
0.991755 -0.00396964 0
0.990556 -0.00464915 0
0.989273 -0.00536823 0
0.98788 -0.00620842 0
0.98642 -0.00708176 0
0.984869 -0.00808651 0
0.983281 -0.00911087 0
0.981634 -0.0102708 0
0.979993 -0.0114286 0
0.978341 -0.0127188 0
0.976747 -0.0139765 0
0.975201 -0.0153553 0
0.973775 -0.0166642 0
0.972459 -0.0180754 0
0.971325 -0.0193739 0
0.970366 -0.0207505 0
0.969645 -0.0219695 0
0.969156 -0.0232392 0
0.968951 -0.0243083 0
0.969023 -0.0254004 0
0.969408 -0.0262537 0
0.970097 -0.0271054 0
0.97111 -0.0276878 0
0.972434 -0.028249 0
0.974072 -0.02852 0
0.976009 -0.0287569 0
0.978234 -0.0286932 0
0.980726 -0.0285895 0
0.983461 -0.028185 0
0.986418 -0.027742 0
0.989563 -0.0270071 0
0.992872 -0.0262415 0
0.996304 -0.025201 0
0.999836 -0.0241427 0
1.00342 -0.0228325 0
1.00704 -0.0215217 0
1.01064 -0.0199862 0
1.01421 -0.0184699 0
1.01769 -0.0167586 0
1.02108 -0.015088 0
1.02432 -0.0132529 0
1.02741 -0.0114803 0
1.0303 -0.00957329 0
1.03298 -0.00775011 0
1.03543 -0.00582091 0
1.03763 -0.00399565 0
1.03955 -0.00209024 0
1.0412 -0.000307104 0
1.04257 0.00153352 0
1.04363 0.0032357 0
1.0444 0.00497635 0
1.04486 0.00656477 0
1.04503 0.00817654 0
1.0449 0.00962473 0
1.04448 0.0110852 0
1.04378 0.0123731 0
1.04282 0.0136661 0
1.04161 0.01478 0
1.04015 0.0158956 0
1.03848 0.0168273 0
1.03661 0.017761 0
1.03455 0.018508 0
1.03234 0.0192601 0
1.02998 0.0198243 0
1.02751 0.0203995 0
1.02494 0.0207867 0
1.02231 0.0211929 0
1.01962 0.0214121 0
1.01692 0.02166 0
1.0142 0.0217224 0
1.01151 0.0218243 0
1.00885 0.0217429 0
1.00625 0.0217126 0
1.00372 0.0215014 0
1.00129 0.021353 0
0.998956 0.0210264 0
0.99675 0.0207745 0
0.99467 0.0203473 0
0.992737 0.0200061 0
0.990951 0.0194929 0
0.989326 0.0190764 0
0.98786 0.0184916 0
0.986564 0.0180134 0
0.985433 0.0173711 0
0.984471 0.0168442 0
0.983675 0.0161582 0
0.983042 0.0155953 0
0.982568 0.014879 0
0.982246 0.0142921 0
0.982072 0.0135588 0
0.982033 0.0129596 0
0.982128 0.012222 0
0.982335 0.0116215 0
0.98266 0.0108918 0
0.983074 0.0103005 0
0.983586 0.00959015 0
0.984161 0.00901745 0
0.984814 0.00833708 0
0.985506 0.00779163 0
0.986256 0.00715052 0
0.98702 0.00663969 0
0.987823 0.00604564 0
0.988619 0.00557544 0
0.989437 0.0050345 0
0.990229 0.00460937 0
0.991027 0.00412566 0
0.991786 0.00374837 0
0.992538 0.00332399 0
0.99324 0.00299561 0
0.993926 0.00263059 0
0.994556 0.00235054 0
0.995163 0.00204304 0
0.995711 0.00180922 0
0.996232 0.00155573 0
0.996696 0.00136479 0
0.997132 0.00116049 0
0.997513 0.00100812 0
0.997867 0.000847282 0
0.998171 0.000728567 0
0.998451 0.000604974 0
0.998687 0.000514738 0
0.998902 0.000422114 0
0.999081 0.00035525 0
0.999241 0.000287601 0
0.999372 0.000239335 0
0.999488 0.000191213 0
0.999582 0.000157293 0
0.999664 0.000123974 0
0.999729 0.00010078 0
0.999785 7.83372e-05 0
0.999829 6.29136e-05 0
0.999866 4.82148e-05 0
0.999895 3.82454e-05 0
0.999919 2.88892e-05 0
0.999937 2.26283e-05 0
0.999952 1.68427e-05 0
0.999963 1.30241e-05 0
0.999973 9.54985e-06 0
0.999979 7.28882e-06 0
0.999985 5.26369e-06 0
0.999989 3.96447e-06 0
0.999992 2.81902e-06 0
0.999994 2.09478e-06 0
0.999996 1.46632e-06 0
0.999997 1.07481e-06 0
0.999998 7.40463e-07 0
0.999998 5.35284e-07 0
0.999999 3.6286e-07 0
0.999999 2.58653e-07 0
0.999999 1.72488e-07 0
1 1.21215e-07 0
1 7.95049e-08 0
1 5.50723e-08 0
1 3.55197e-08 0
1 2.42478e-08 0
1 1.5375e-08 0
1 1.0342e-08 0
1 6.44561e-09 0
1 4.27137e-09 0
1 2.61606e-09 0
1 1.70761e-09 0
1 1.02754e-09 0
1 6.60541e-10 0
1 3.90432e-10 0
1 2.47135e-10 0
1 1.43457e-10 0
1 8.93971e-11 0
1 5.09517e-11 0
1 3.12533e-11 0
1 1.74858e-11 0
1 1.05557e-11 0
1 5.79686e-12 0
1 3.44577e-12 0
1 1.8663e-12 0
1 1.11941e-12 0
1 7.00101e-13 0
0.999973 -6.41332e-06 0
0.999946 -1.51081e-05 0
0.999917 -2.65887e-05 0
0.999883 -4.08376e-05 0
0.999842 -5.93436e-05 0
0.999792 -8.18944e-05 0
0.999729 -0.000111261 0
0.999653 -0.000146769 0
0.999557 -0.000192957 0
0.99944 -0.000248342 0
0.999295 -0.000319921 0
0.999121 -0.000404892 0
0.998907 -0.000513629 0
0.998654 -0.000641249 0
0.998346 -0.000802657 0
0.997988 -0.000989787 0
0.99756 -0.00122346 0
0.997067 -0.00149089 0
0.996488 -0.00182039 0
0.995832 -0.00219242 0
0.995072 -0.00264445 0
0.994227 -0.00314762 0
0.993263 -0.00375029 0
0.992208 -0.00441111 0
0.991029 -0.00519095 0
0.989761 -0.00603253 0
0.98837 -0.00701056 0
0.986906 -0.00804821 0
0.985334 -0.00923515 0
0.983715 -0.0104717 0
0.982017 -0.0118632 0
0.980314 -0.0132844 0
0.978577 -0.0148571 0
0.976888 -0.0164292 0
0.975222 -0.0181389 0
0.973665 -0.0198074 0
0.972198 -0.0215897 0
0.970904 -0.0232824 0
0.969768 -0.0250571 0
0.968867 -0.0266889 0
0.968187 -0.0283658 0
0.967792 -0.0298463 0
0.967669 -0.0313337 0
0.967867 -0.0325753 0
0.968371 -0.0337882 0
0.969212 -0.0347136 0
0.970373 -0.0355808 0
0.971867 -0.0361294 0
0.973674 -0.0365986 0
0.97579 -0.0367304 0
0.978193 -0.0367709 0
0.980864 -0.0364681 0
0.983778 -0.0360718 0
0.986905 -0.0353379 0
0.99022 -0.0345176 0
0.993683 -0.0333759 0
0.997269 -0.0321624 0
1.00093 -0.0306525 0
1.00465 -0.0290915 0
1.00838 -0.0272652 0
1.01209 -0.0254133 0
1.01573 -0.0233313 0
1.0193 -0.0212517 0
1.02274 -0.0189793 0
1.02603 -0.0167386 0
1.02914 -0.0143428 0
1.03206 -0.0120077 0
1.03474 -0.0095538 0
1.03719 -0.00718844 0
1.03936 -0.00473808 0
1.04127 -0.00240184 0
1.04288 -1.09191e-05 0
1.04419 0.00224308 0
1.0452 0.00452563 0
1.04591 0.00665162 0
1.0463 0.00878471 0
1.04639 0.0107449 0
1.04619 0.0126957 0
1.04569 0.0144607 0
1.04491 0.0162046 0
1.04386 0.017753 0
1.04256 0.0192734 0
1.04101 0.0205917 0
1.03925 0.0218795 0
1.03729 0.0229614 0
1.03514 0.0240144 0
1.03284 0.0248597 0
1.0304 0.0256814 0
1.02784 0.0262957 0
1.0252 0.0268945 0
1.02248 0.0272877 0
1.01973 0.0276758 0
1.01694 0.0278614 0
1.01416 0.0280539 0
1.0114 0.0280477 0
1.00868 0.0280617 0
1.00601 0.0278813 0
1.00343 0.027735 0
1.00094 0.0273989 0
0.998562 0.0271109 0
0.996302 0.0266379 0
0.994184 0.0262268 0
0.992205 0.0256358 0
0.990386 0.02512 0
0.988722 0.0244296 0
0.98723 0.0238267 0
0.985902 0.023055 0
0.984749 0.0223824 0
0.983764 0.0215471 0
0.982951 0.0208211 0
0.982303 0.0199395 0
0.981816 0.0191762 0
0.981488 0.018265 0
0.981305 0.0174796 0
0.981269 0.0165551 0
0.981358 0.0157623 0
0.981579 0.0148401 0
0.981901 0.0140538 0
0.982336 0.0131488 0
0.982847 0.0123817 0
0.983452 0.0115077 0
0.984108 0.0107716 0
0.984837 0.00994104 0
0.98559 0.0092462 0
0.986398 0.0084698 0
0.987207 0.00782492 0
0.988051 0.00711135 0
0.988876 0.00652315 0
0.98972 0.00587881 0
0.990526 0.00535193 0
0.991338 0.00478073 0
0.992099 0.00431761 0
0.992853 0.00382092 0
0.993549 0.00342181 0
0.994229 0.00299854 0
0.994845 0.00266162 0