# vtk DataFile Version 3.0
Flow field at step 1250
ASCII
DATASET STRUCTURED_GRID
DIMENSIONS 200 100 1
POINTS 20000 float
0.005 0.005 0
0.015 0.005 0
0.025 0.005 0
0.035 0.005 0
0.045 0.005 0
0.055 0.005 0
0.065 0.005 0
0.075 0.005 0
0.085 0.005 0
0.095 0.005 0
0.105 0.005 0
0.115 0.005 0
0.125 0.005 0
0.135 0.005 0
0.145 0.005 0
0.155 0.005 0
0.165 0.005 0
0.175 0.005 0
0.185 0.005 0
0.195 0.005 0
0.205 0.005 0
0.215 0.005 0
0.225 0.005 0
0.235 0.005 0
0.245 0.005 0
0.255 0.005 0
0.265 0.005 0
0.275 0.005 0
0.285 0.005 0
0.295 0.005 0
0.305 0.005 0
0.315 0.005 0
0.325 0.005 0
0.335 0.005 0
0.345 0.005 0
0.355 0.005 0
0.365 0.005 0
0.375 0.005 0
0.385 0.005 0
0.395 0.005 0
0.405 0.005 0
0.415 0.005 0
0.425 0.005 0
0.435 0.005 0
0.445 0.005 0
0.455 0.005 0
0.465 0.005 0
0.475 0.005 0
0.485 0.005 0
0.495 0.005 0
0.505 0.005 0
0.515 0.005 0
0.525 0.005 0
0.535 0.005 0
0.545 0.005 0
0.555 0.005 0
0.565 0.005 0
0.575 0.005 0
0.585 0.005 0
0.595 0.005 0
0.605 0.005 0
0.615 0.005 0
0.625 0.005 0
0.635 0.005 0
0.645 0.005 0
0.655 0.005 0
0.665 0.005 0
0.675 0.005 0
0.685 0.005 0
0.695 0.005 0
0.705 0.005 0
0.715 0.005 0
0.725 0.005 0
0.735 0.005 0
0.745 0.005 0
0.755 0.005 0
0.765 0.005 0
0.775 0.005 0
0.785 0.005 0
0.795 0.005 0
0.805 0.005 0
0.815 0.005 0
0.825 0.005 0
0.835 0.005 0
0.845 0.005 0
0.855 0.005 0
0.865 0.005 0
0.875 0.005 0
0.885 0.005 0
0.895 0.005 0
0.905 0.005 0
0.915 0.005 0
0.925 0.005 0
0.935 0.005 0
0.945 0.005 0
0.955 0.005 0
0.965 0.005 0
0.975 0.005 0
0.985 0.005 0
0.995 0.005 0
1.005 0.005 0
1.015 0.005 0
1.025 0.005 0
1.035 0.005 0
1.045 0.005 0
1.055 0.005 0
1.065 0.005 0
1.075 0.005 0
1.085 0.005 0
1.095 0.005 0
1.105 0.005 0
1.115 0.005 0
1.125 0.005 0
1.135 0.005 0
1.145 0.005 0
1.155 0.005 0
1.165 0.005 0
1.175 0.005 0
1.185 0.005 0
1.195 0.005 0
1.205 0.005 0
1.215 0.005 0
1.225 0.005 0
1.235 0.005 0
1.245 0.005 0
1.255 0.005 0
1.265 0.005 0
1.275 0.005 0
1.285 0.005 0
1.295 0.005 0
1.305 0.005 0
1.315 0.005 0
1.325 0.005 0
1.335 0.005 0
1.345 0.005 0
1.355 0.005 0
1.365 0.005 0
1.375 0.005 0
1.385 0.005 0
1.395 0.005 0
1.405 0.005 0
1.415 0.005 0
1.425 0.005 0
1.435 0.005 0
1.445 0.005 0
1.455 0.005 0
1.465 0.005 0
1.475 0.005 0
1.485 0.005 0
1.495 0.005 0
1.505 0.005 0
1.515 0.005 0
1.525 0.005 0
1.535 0.005 0
1.545 0.005 0
1.555 0.005 0
1.565 0.005 0
1.575 0.005 0
1.585 0.005 0
1.595 0.005 0
1.605 0.005 0
1.615 0.005 0
1.625 0.005 0
1.635 0.005 0
1.645 0.005 0
1.655 0.005 0
1.665 0.005 0
1.675 0.005 0
1.685 0.005 0
1.695 0.005 0
1.705 0.005 0
1.715 0.005 0
1.725 0.005 0
1.735 0.005 0
1.745 0.005 0
1.755 0.005 0
1.765 0.005 0
1.775 0.005 0
1.785 0.005 0
1.795 0.005 0
1.805 0.005 0
1.815 0.005 0
1.825 0.005 0
1.835 0.005 0
1.845 0.005 0
1.855 0.005 0
1.865 0.005 0
1.875 0.005 0
1.885 0.005 0
1.895 0.005 0
1.905 0.005 0
1.915 0.005 0
1.925 0.005 0
1.935 0.005 0
1.945 0.005 0
1.955 0.005 0
1.965 0.005 0
1.975 0.005 0
1.985 0.005 0
1.995 0.005 0
0.005 0.015 0
0.015 0.015 0
0.025 0.015 0
0.035 0.015 0
0.045 0.015 0
0.055 0.015 0
0.065 0.015 0
0.075 0.015 0
0.085 0.015 0
0.095 0.015 0
0.105 0.015 0
0.115 0.015 0
0.125 0.015 0
0.135 0.015 0
0.145 0.015 0
0.155 0.015 0
0.165 0.015 0
0.175 0.015 0
0.185 0.015 0
0.195 0.015 0
0.205 0.015 0
0.215 0.015 0
0.225 0.015 0
0.235 0.015 0
0.245 0.015 0
0.255 0.015 0
0.265 0.015 0
0.275 0.015 0
0.285 0.015 0
0.295 0.015 0
0.305 0.015 0
0.315 0.015 0
0.325 0.015 0
0.335 0.015 0
0.345 0.015 0
0.355 0.015 0
0.365 0.015 0
0.375 0.015 0
0.385 0.015 0
0.395 0.015 0
0.405 0.015 0
0.415 0.015 0
0.425 0.015 0
0.435 0.015 0
0.445 0.015 0
0.455 0.015 0
0.465 0.015 0
0.475 0.015 0
0.485 0.015 0
0.495 0.015 0
0.505 0.015 0
0.515 0.015 0
0.525 0.015 0
0.535 0.015 0
0.545 0.015 0
0.555 0.015 0
0.565 0.015 0
0.575 0.015 0
0.585 0.015 0
0.595 0.015 0
0.605 0.015 0
0.615 0.015 0
0.625 0.015 0
0.635 0.015 0
0.645 0.015 0
0.655 0.015 0
0.665 0.015 0
0.675 0.015 0
0.685 0.015 0
0.695 0.015 0
0.705 0.015 0
0.715 0.015 0
0.725 0.015 0
0.735 0.015 0
0.745 0.015 0
0.755 0.015 0
0.765 0.015 0
0.775 0.015 0
0.785 0.015 0
0.795 0.015 0
0.805 0.015 0
0.815 0.015 0
0.825 0.015 0
0.835 0.015 0
0.845 0.015 0
0.855 0.015 0
0.865 0.015 0
0.875 0.015 0
0.885 0.015 0
0.895 0.015 0
0.905 0.015 0
0.915 0.015 0
0.925 0.015 0
0.935 0.015 0
0.945 0.015 0
0.955 0.015 0
0.965 0.015 0
0.975 0.015 0
0.985 0.015 0
0.995 0.015 0
1.005 0.015 0
1.015 0.015 0
1.025 0.015 0
1.035 0.015 0
1.045 0.015 0
1.055 0.015 0
1.065 0.015 0
1.075 0.015 0
1.085 0.015 0
1.095 0.015 0
1.105 0.015 0
1.115 0.015 0
1.125 0.015 0
1.135 0.015 0
1.145 0.015 0
1.155 0.015 0
1.165 0.015 0
1.175 0.015 0
1.185 0.015 0
1.195 0.015 0
1.205 0.015 0
1.215 0.015 0
1.225 0.015 0
1.235 0.015 0
1.245 0.015 0
1.255 0.015 0
1.265 0.015 0
1.275 0.015 0
1.285 0.015 0
1.295 0.015 0
1.305 0.015 0
1.315 0.015 0
1.325 0.015 0
1.335 0.015 0
1.345 0.015 0
1.355 0.015 0
1.365 0.015 0
1.375 0.015 0
1.385 0.015 0
1.395 0.015 0
1.405 0.015 0
1.415 0.015 0
1.425 0.015 0
1.435 0.015 0
1.445 0.015 0
1.455 0.015 0
1.465 0.015 0
1.475 0.015 0
1.485 0.015 0
1.495 0.015 0
1.505 0.015 0
1.515 0.015 0
1.525 0.015 0
1.535 0.015 0
1.545 0.015 0
1.555 0.015 0
1.565 0.015 0
1.575 0.015 0
1.585 0.015 0
1.595 0.015 0
1.605 0.015 0
1.615 0.015 0
1.625 0.015 0
1.635 0.015 0
1.645 0.015 0
1.655 0.015 0
1.665 0.015 0
1.675 0.015 0
1.685 0.015 0
1.695 0.015 0
1.705 0.015 0
1.715 0.015 0
1.725 0.015 0
1.735 0.015 0
1.745 0.015 0
1.755 0.015 0
1.765 0.015 0
1.775 0.015 0
1.785 0.015 0
1.795 0.015 0
1.805 0.015 0
1.815 0.015 0
1.825 0.015 0
1.835 0.015 0
1.845 0.015 0
1.855 0.015 0
1.865 0.015 0
1.875 0.015 0
1.885 0.015 0
1.895 0.015 0
1.905 0.015 0
1.915 0.015 0
1.925 0.015 0
1.935 0.015 0
1.945 0.015 0
1.955 0.015 0
1.965 0.015 0
1.975 0.015 0
1.985 0.015 0
1.995 0.015 0
0.005 0.025 0
0.015 0.025 0
0.025 0.025 0
0.035 0.025 0
0.045 0.025 0
0.055 0.025 0
0.065 0.025 0
0.075 0.025 0
0.085 0.025 0
0.095 0.025 0
0.105 0.025 0
0.115 0.025 0
0.125 0.025 0
0.135 0.025 0
0.145 0.025 0
0.155 0.025 0
0.165 0.025 0
0.175 0.025 0
0.185 0.025 0
0.195 0.025 0
0.205 0.025 0
0.215 0.025 0
0.225 0.025 0
0.235 0.025 0
0.245 0.025 0
0.255 0.025 0
0.265 0.025 0
0.275 0.025 0
0.285 0.025 0
0.295 0.025 0
0.305 0.025 0
0.315 0.025 0
0.325 0.025 0
0.335 0.025 0
0.345 0.025 0
0.355 0.025 0
0.365 0.025 0
0.375 0.025 0
0.385 0.025 0
0.395 0.025 0
0.405 0.025 0
0.415 0.025 0
0.425 0.025 0
0.435 0.025 0
0.445 0.025 0
0.455 0.025 0
0.465 0.025 0
0.475 0.025 0
0.485 0.025 0
0.495 0.025 0
0.505 0.025 0
0.515 0.025 0
0.525 0.025 0
0.535 0.025 0
0.545 0.025 0
0.555 0.025 0
0.565 0.025 0
0.575 0.025 0
0.585 0.025 0
0.595 0.025 0
0.605 0.025 0
0.615 0.025 0
0.625 0.025 0
0.635 0.025 0
0.645 0.025 0
0.655 0.025 0
0.665 0.025 0
0.675 0.025 0
0.685 0.025 0
0.695 0.025 0
0.705 0.025 0
0.715 0.025 0
0.725 0.025 0
0.735 0.025 0
0.745 0.025 0
0.755 0.025 0
0.765 0.025 0
0.775 0.025 0
0.785 0.025 0
0.795 0.025 0
0.805 0.025 0
0.815 0.025 0
0.825 0.025 0
0.835 0.025 0
0.845 0.025 0
0.855 0.025 0
0.865 0.025 0
0.875 0.025 0
0.885 0.025 0
0.895 0.025 0
0.905 0.025 0
0.915 0.025 0
0.925 0.025 0
0.935 0.025 0
0.945 0.025 0
0.955 0.025 0
0.965 0.025 0
0.975 0.025 0
0.985 0.025 0
0.995 0.025 0
1.005 0.025 0
1.015 0.025 0
1.025 0.025 0
1.035 0.025 0
1.045 0.025 0
1.055 0.025 0
1.065 0.025 0
1.075 0.025 0
1.085 0.025 0
1.095 0.025 0
1.105 0.025 0
1.115 0.025 0
1.125 0.025 0
1.135 0.025 0
1.145 0.025 0
1.155 0.025 0
1.165 0.025 0
1.175 0.025 0
1.185 0.025 0
1.195 0.025 0
1.205 0.025 0
1.215 0.025 0
1.225 0.025 0
1.235 0.025 0
1.245 0.025 0
1.255 0.025 0
1.265 0.025 0
1.275 0.025 0
1.285 0.025 0
1.295 0.025 0
1.305 0.025 0
1.315 0.025 0
1.325 0.025 0
1.335 0.025 0
1.345 0.025 0
1.355 0.025 0
1.365 0.025 0
1.375 0.025 0
1.385 0.025 0
1.395 0.025 0
1.405 0.025 0
1.415 0.025 0
1.425 0.025 0
1.435 0.025 0
1.445 0.025 0
1.455 0.025 0
1.465 0.025 0
1.475 0.025 0
1.485 0.025 0
1.495 0.025 0
1.505 0.025 0
1.515 0.025 0
1.525 0.025 0
1.535 0.025 0
1.545 0.025 0
1.555 0.025 0
1.565 0.025 0
1.575 0.025 0
1.585 0.025 0
1.595 0.025 0
1.605 0.025 0
1.615 0.025 0
1.625 0.025 0
1.635 0.025 0
1.645 0.025 0
1.655 0.025 0
1.665 0.025 0
1.675 0.025 0
1.685 0.025 0
1.695 0.025 0
1.705 0.025 0
1.715 0.025 0
1.725 0.025 0
1.735 0.025 0
1.745 0.025 0
1.755 0.025 0
1.765 0.025 0
1.775 0.025 0
1.785 0.025 0
1.795 0.025 0
1.805 0.025 0
1.815 0.025 0
1.825 0.025 0
1.835 0.025 0
1.845 0.025 0
1.855 0.025 0
1.865 0.025 0
1.875 0.025 0
1.885 0.025 0
1.895 0.025 0
1.905 0.025 0
1.915 0.025 0
1.925 0.025 0
1.935 0.025 0
1.945 0.025 0
1.955 0.025 0
1.965 0.025 0
1.975 0.025 0
1.985 0.025 0
1.995 0.025 0
0.005 0.035 0
0.015 0.035 0
0.025 0.035 0
0.035 0.035 0
0.045 0.035 0
0.055 0.035 0
0.065 0.035 0
0.075 0.035 0
0.085 0.035 0
0.095 0.035 0
0.105 0.035 0
0.115 0.035 0
0.125 0.035 0
0.135 0.035 0
0.145 0.035 0
0.155 0.035 0
0.165 0.035 0
0.175 0.035 0
0.185 0.035 0
0.195 0.035 0
0.205 0.035 0
0.215 0.035 0
0.225 0.035 0
0.235 0.035 0
0.245 0.035 0
0.255 0.035 0
0.265 0.035 0
0.275 0.035 0
0.285 0.035 0
0.295 0.035 0
0.305 0.035 0
0.315 0.035 0
0.325 0.035 0
0.335 0.035 0
0.345 0.035 0
0.355 0.035 0
0.365 0.035 0
0.375 0.035 0
0.385 0.035 0
0.395 0.035 0
0.405 0.035 0
0.415 0.035 0
0.425 0.035 0
0.435 0.035 0
0.445 0.035 0
0.455 0.035 0
0.465 0.035 0
0.475 0.035 0
0.485 0.035 0
0.495 0.035 0
0.505 0.035 0
0.515 0.035 0
0.525 0.035 0
0.535 0.035 0
0.545 0.035 0
0.555 0.035 0
0.565 0.035 0
0.575 0.035 0
0.585 0.035 0
0.595 0.035 0
0.605 0.035 0
0.615 0.035 0
0.625 0.035 0
0.635 0.035 0
0.645 0.035 0
0.655 0.035 0
0.665 0.035 0
0.675 0.035 0
0.685 0.035 0
0.695 0.035 0
0.705 0.035 0
0.715 0.035 0
0.725 0.035 0
0.735 0.035 0
0.745 0.035 0
0.755 0.035 0
0.765 0.035 0
0.775 0.035 0
0.785 0.035 0
0.795 0.035 0
0.805 0.035 0
0.815 0.035 0
0.825 0.035 0
0.835 0.035 0
0.845 0.035 0
0.855 0.035 0
0.865 0.035 0
0.875 0.035 0
0.885 0.035 0
0.895 0.035 0
0.905 0.035 0
0.915 0.035 0
0.925 0.035 0
0.935 0.035 0
0.945 0.035 0
0.955 0.035 0
0.965 0.035 0
0.975 0.035 0
0.985 0.035 0
0.995 0.035 0
1.005 0.035 0
1.015 0.035 0
1.025 0.035 0
1.035 0.035 0
1.045 0.035 0
[...]
POINT_DATA 20000
VECTORS velocity float
0.957644 -2.20183e-05 0
0.921643 -4.9538e-05 0
0.891325 -8.15874e-05 0
0.865979 -0.000116615 0
0.844912 -0.000154619 0
0.827486 -0.00019395 0
0.813133 -0.000235543 0
0.801361 -0.000277484 0
0.791753 -0.000321527 0
0.783958 -0.000365384 0
0.777685 -0.000411502 0
0.772696 -0.000457167 0
0.768796 -0.000505409 0
0.765824 -0.000553074 0
0.763654 -0.00060368 0
0.762182 -0.000653653 0
0.761323 -0.000706905 0
0.761011 -0.000759482 0
0.761194 -0.000815608 0
0.761827 -0.000870996 0
0.762878 -0.000930099 0
0.764319 -0.00098835 0
0.766129 -0.00105035 0
0.768293 -0.00111132 0
0.770797 -0.00117593 0
0.773632 -0.00123921 0
0.77679 -0.00130587 0
0.780267 -0.0013708 0
0.784057 -0.00143865 0
0.788159 -0.00150426 0
0.79257 -0.00157216 0
0.797288 -0.00163714 0
0.802313 -0.00170362 0
0.807643 -0.00176637 0
0.813276 -0.00182965 0
0.819212 -0.00188825 0
0.825448 -0.00194629 0
0.83198 -0.00199861 0
0.838807 -0.00204917 0
0.845922 -0.0020929 0
0.853321 -0.00213363 0
0.860998 -0.00216642 0
0.868944 -0.00219498 0
0.877152 -0.00221456 0
0.88561 -0.0022288 0
0.894309 -0.00223312 0
0.903234 -0.00223117 0
0.912373 -0.00221858 0
0.92171 -0.00219905 0
0.931229 -0.00216843 0
0.940912 -0.00213051 0
0.950742 -0.00208138 0
0.960698 -0.00202496 0
0.97076 -0.00195756 0
0.980907 -0.00188326 0
0.991117 -0.0017986 0
1.00137 -0.0017078 0
1.01163 -0.00160759 0
1.0219 -0.00150237 0
1.03213 -0.00138901 0
1.04231 -0.00127206 0
1.05241 -0.0011485 0
1.06241 -0.00102298 0
1.07229 -0.00089255 0
1.08201 -0.000761958 0
1.09157 -0.000628263 0
1.10094 -0.000496244 0
1.11009 -0.000362951 0
1.11901 -0.000233141 0
1.12767 -0.000103825 0
1.13605 2.03121e-05 0
1.14414 0.000142321 0
1.15192 0.00025764 0
1.15937 0.000369393 0
1.16648 0.000473191 0
1.17322 0.000572229 0
1.1796 0.000662342 0
1.18559 0.000746787 0
1.19118 0.000821662 0
1.19638 0.000890271 0
1.20116 0.000949012 0
1.20552 0.00100121 0
1.20946 0.00104359 0
1.21297 0.00107946 0
1.21606 0.00110589 0
1.21873 0.00112616 0
1.22097 0.00113769 0
1.2228 0.00114365 0
1.22422 0.00114183 0
1.22523 0.00113527 0
1.22586 0.00112209 0
1.2261 0.00110516 0
1.22598 0.00108291 0
1.22552 0.001058 0
1.22472 0.00102914 0
1.2236 0.000998746 0
1.2222 0.000965757 0
1.22052 0.000932335 0
1.21859 0.000897583 0
1.21644 0.000863417 0
1.21407 0.000829039 0
1.21153 0.00079614 0
1.20882 0.000763952 0
1.20598 0.00073398 0
1.20301 0.000705417 0
1.19996 0.000679642 0
1.19682 0.000655734 0
1.19363 0.000635023 0
1.1904 0.000616403 0
1.18715 0.000601243 0
1.18389 0.000588181 0
1.18063 0.000578723 0
1.1774 0.000571176 0
1.17419 0.000567289 0
1.17102 0.00056497 0
1.1679 0.000566308 0
1.16482 0.000568747 0
1.16181 0.000574813 0
1.15886 0.000581426 0
1.15597 0.000591629 0
1.15315 0.000601771 0
1.15039 0.000615478 0
1.14771 0.000628489 0
1.14509 0.000645063 0
1.14253 0.000660309 0
1.14004 0.000679139 0
1.1376 0.000696033 0
1.13523 0.000716554 0
1.13291 0.000734573 0
1.13064 0.000756277 0
1.12842 0.000774972 0
1.12624 0.000797411 0
1.1241 0.000816409 0
1.122 0.000839196 0
1.11993 0.000858197 0
1.11788 0.000881001 0
1.11587 0.000899774 0
1.11387 0.000922314 0
1.11189 0.000940688 0
1.10992 0.000962726 0
1.10797 0.000980582 0
1.10602 0.00100191 0
1.10408 0.00101918 0
1.10214 0.00103963 0
1.1002 0.00105626 0
1.09826 0.00107567 0
1.09631 0.00109165 0
1.09435 0.00110988 0
1.09239 0.00112521 0
1.09042 0.00114213 0
1.08843 0.00115683 0
1.08643 0.0011723 0
1.08442 0.0011864 0
1.0824 0.0012003 0
1.08035 0.00121381 0
1.0783 0.00122602 0
1.07622 0.00123896 0
1.07413 0.00124936 0
1.07203 0.00126174 0
1.06991 0.00127019 0
1.06777 0.00128202 0
1.06562 0.00128841 0
1.06345 0.00129968 0
1.06127 0.00130389 0
1.05907 0.00131457 0
1.05686 0.00131649 0
1.05464 0.00132655 0
1.05241 0.00132607 0
1.05018 0.00133545 0
1.04793 0.00133249 0
1.04568 0.00134113 0
1.04343 0.00133559 0
1.04117 0.00134341 0
1.03892 0.00133524 0
1.03666 0.00134212 0
1.03442 0.00133128 0
1.03218 0.00133709 0
1.02995 0.00132355 0
1.02773 0.00132816 0
1.02553 0.0013119 0
1.02335 0.00131514 0
1.0212 0.00129616 0
1.01907 0.00129785 0
1.01697 0.00127619 0
1.0149 0.0012761 0
1.01288 0.00125179 0
1.01089 0.00124971 0
1.00896 0.00122281 0
1.00707 0.00121852 0
1.00525 0.00118912 0
1.00349 0.00118244 0
1.00179 0.00115077 0
1.00017 0.00114165 0
0.998634 0.00110829 0
0.99718 0.001097 0
0.995819 0.00106347 0
0.99456 0.00105116 0
0.993423 0.00102152 0
0.99245 0.00101141 0
0.991772 0.000996148 0
0.957629 -6.59246e-05 0
0.921617 -0.000148718 0
0.89129 -0.000244279 0
0.865938 -0.000350073 0
0.844865 -0.000462948 0
0.827435 -0.000582207 0
0.813078 -0.000705268 0
0.801303 -0.000832929 0
0.791693 -0.000962774 0
0.783895 -0.00109674 0
0.77762 -0.00123228 0
0.772629 -0.00137219 0
0.768725 -0.00151363 0
0.765752 -0.00166001 0
0.763579 -0.00180813 0
0.762103 -0.00196185 0
0.761242 -0.00211756 0
0.760928 -0.00227945 0
0.761107 -0.0024435 0
0.761737 -0.00261412 0
0.762785 -0.0027869 0
0.764223 -0.00296634 0
0.766031 -0.00314768 0
0.768192 -0.00333544 0
0.770694 -0.00352453 0
0.773526 -0.00371936 0
0.776683 -0.00391458 0
0.780158 -0.00411442 0
0.783947 -0.00431328 0
0.788049 -0.00451517 0
0.79246 -0.00471424 0
0.797179 -0.00491423 0
0.802206 -0.00510913 0
0.807538 -0.00530236 0
0.813175 -0.00548776 0
0.819115 -0.00566847 0
0.825355 -0.00583827 0
0.831894 -0.006 0
0.838728 -0.00614744 0
0.845851 -0.00628325 0
0.853259 -0.00640128 0
0.860946 -0.00650408 0
0.868903 -0.00658567 0
0.877122 -0.00664862 0
0.885593 -0.00668724 0
0.894304 -0.00670421 0
0.903243 -0.00669425 0
0.912396 -0.00666029 0
0.921747 -0.00659752 0
0.931279 -0.00650927 0
0.940977 -0.00639127 0
0.95082 -0.0062473 0
0.960789 -0.00607372 0
0.970863 -0.00587481 0
0.981022 -0.00564753 0
0.991242 -0.00539672 0
1.0015 -0.00511989 0
1.01178 -0.0048224 0
1.02205 -0.00450227 0
1.03228 -0.00416534 0
1.04246 -0.00381002 0
1.05257 -0.00344251 0
1.06257 -0.00306152 0
1.07244 -0.00267352 0
1.08217 -0.00227739 0
1.09172 -0.0018797 0
1.10108 -0.0014794 0
1.11022 -0.00108306 0
1.11913 -0.000689523 0
1.12777 -0.000305243 0
1.13614 7.11071e-05 0
1.14422 0.000433348 0
1.15198 0.000783062 0
1.15941 0.00111445 0
1.1665 0.0014294 0
1.17322 0.0017226 0
1.17958 0.0019963 0
1.18555 0.00224573 0
1.19112 0.00247352 0
1.19629 0.00267551 0
1.20104 0.0028547 0
1.20538 0.00300759 0
1.2093 0.0031375 0
1.21279 0.0032416 0
1.21586 0.00332351 0
1.2185 0.00338105 0
1.22072 0.00341805 0
1.22253 0.00343297 0
1.22393 0.00342975 0
1.22492 0.00340742 0
1.22553 0.00336995 0
1.22576 0.00331684 0
1.22562 0.003252 0
1.22514 0.0031753 0
1.22433 0.00309046 0
1.2232 0.00299762 0
1.22178 0.00290024 0
1.2201 0.00279858 0
1.21816 0.00269577 0
1.21599 0.0025921 0
1.21362 0.0024903 0
1.21107 0.00239056 0
1.20836 0.00229525 0
1.20551 0.00220436 0
1.20255 0.00211989 0
1.19948 0.00204156 0
1.19635 0.00197109 0
1.19315 0.00190783 0
1.18992 0.00185332 0
1.18667 0.0018065 0
1.18341 0.00176884 0
1.18015 0.00173882 0
1.17691 0.00171798 0
1.1737 0.00170428 0
1.17053 0.00169946 0
1.16741 0.00170097 0
1.16434 0.00171086 0
1.16132 0.00172601 0
1.15837 0.00174893 0
1.15548 0.00177589 0
1.15266 0.00180996 0
1.1499 0.0018468 0
1.14721 0.00189009 0
1.14459 0.00193487 0
1.14203 0.0019855 0
1.13954 0.00203638 0
1.1371 0.00209259 0
1.13473 0.00214792 0
1.1324 0.00220811 0
1.13013 0.00226639 0
1.12791 0.00232916 0
1.12573 0.00238915 0
1.12359 0.0024533 0
1.12149 0.00251392 0
1.11942 0.00257843 0
1.11738 0.00263883 0
1.11536 0.00270287 0
1.11336 0.00276237 0
1.11138 0.00282525 0
1.10942 0.00288333 0
1.10746 0.00294448 0
1.10552 0.00300074 0
1.10358 0.00305972 0
1.10164 0.00311386 0
1.0997 0.0031703 0
1.09775 0.00322212 0
1.09581 0.0032757 0
1.09386 0.00332505 0
1.09189 0.00337549 0
1.08992 0.00342226 0
1.08794 0.00346932 0
1.08595 0.00351342 0
1.08394 0.00355687 0
1.08191 0.0035982 0
1.07988 0.00363781 0
1.07782 0.00367631 0
1.07576 0.00371185 0
1.07367 0.00374741 0
1.07157 0.00377865 0
1.06945 0.00381117 0
1.06732 0.00383785 0
1.06517 0.0038672 0
1.06301 0.00388908 0
1.06083 0.00391511 0
1.05864 0.00393195 0
1.05644 0.00395449 0
1.05422 0.00396601 0
1.052 0.00398487 0
1.04977 0.00399084 0
1.04753 0.00400581 0
1.04529 0.00400598 0
1.04304 0.00401682 0
1.04079 0.00401097 0
1.03854 0.00401742 0
1.03629 0.00400533 0
1.03405 0.00400713 0
1.03182 0.0039886 0
1.0296 0.00398543 0
1.02739 0.00396028 0
1.0252 0.00395184 0
1.02302 0.0039199 0
1.02087 0.00390583 0
1.01875 0.00386693 0
1.01666 0.00384686 0
1.0146 0.00380086 0
1.01258 0.00377439 0
1.0106 0.00372116 0
1.00867 0.00368791 0
1.0068 0.00362736 0
1.00498 0.00358701 0
1.00322 0.00351927 0
1.00153 0.00347177 0
0.99992 0.00339748 0
0.998385 0.00334356 0
0.996937 0.00326489 0
0.99558 0.0032073 0
0.994327 0.00313037 0
0.993193 0.00307709 0
0.992224 0.00301822 0
0.991549 0.00299001 0
0.957601 -0.000109795 0
0.921565 -0.000247413 0
0.891221 -0.000406816 0
0.865854 -0.000582381 0
0.844771 -0.000770951 0
0.827332 -0.000968555 0
0.812968 -0.00117446 0
0.801187 -0.00138568 0
0.791571 -0.00160327 0
0.783769 -0.00182464 0
0.777489 -0.00205211 0
0.772493 -0.00228307 0
0.768585 -0.00252072 0
0.765606 -0.00276221 0
0.763428 -0.00301132 0
0.761947 -0.00326484 0
0.76108 -0.00352691 0
0.76076 -0.0037939 0
0.760933 -0.00407017 0
0.761558 -0.00435162 0
0.762599 -0.00464268 0
0.764032 -0.0049388 0
0.765834 -0.00524437 0
0.767989 -0.00555438 0
0.770486 -0.00587305 0
0.773314 -0.00619494 0
0.776467 -0.006524 0
0.779939 -0.00685436 0
0.783727 -0.00718961 0
0.787828 -0.00752351 0
0.792239 -0.00785922 0
0.79696 -0.00819012 0
0.80199 -0.00851891 0
0.807327 -0.00883867 0
0.812971 -0.00915164 0
0.818919 -0.00945063 0
0.82517 -0.0097375 0
0.831721 -0.0100049 0
0.838569 -0.0102544 0
0.845708 -0.0104785 0
0.853135 -0.0106787 0
0.860841 -0.0108477 0
0.86882 -0.0109869 0
0.877062 -0.0110892 0
0.885558 -0.0111564 0
0.894295 -0.0111818 0
0.90326 -0.0111675 0
0.91244 -0.0111077 0
0.921819 -0.0110049 0
0.93138 -0.0108542 0
0.941105 -0.0106589 0
0.950975 -0.010415 0
0.96097 -0.0101266 0
0.971069 -0.00979077 0
0.98125 -0.00941256 0
0.991492 -0.00898995 0
1.00177 -0.00852894 0
1.01206 -0.00802839 0
1.02234 -0.00749514 0
1.03259 -0.00692883 0
1.04278 -0.00633697 0
1.05289 -0.00571981 0
1.06289 -0.00508538 0
1.07276 -0.00443431 0
1.08247 -0.00377494 0
1.09201 -0.00310809 0
1.10136 -0.00244217 0
1.11048 -0.00177799 0
1.11936 -0.00112381 0
1.12799 -0.000480225 0
1.13633 0.000144837 0
1.14437 0.000751181 0
1.1521 0.0013314 0
1.15949 0.00188582 0
1.16654 0.00240772 0
1.17322 0.00289804 0
1.17953 0.00335089 0
1.18545 0.00376787 0
1.19098 0.00414402 0
1.1961 0.00448163 0
1.20081 0.00477673 0
1.2051 0.00503229 0
1.20897 0.00524533 0
1.21242 0.00541947 0
1.21544 0.00555272 0
1.21804 0.00564922 0
1.22022 0.00570794 0
1.22198 0.00573344 0
1.22334 0.00572551 0
1.22429 0.00568901 0
1.22486 0.00562445 0
1.22506 0.00553677 0
1.22489 0.00542703 0
1.22438 0.00530014 0
1.22354 0.00515751 0
1.22239 0.00500382 0
1.22095 0.00484066 0
1.21924 0.00467234 0
1.21729 0.00450042 0
1.21511 0.00432877 0
1.21272 0.00415873 0
1.21016 0.00399365 0
1.20744 0.00383452 0
1.20458 0.00368414 0
1.20161 0.00354307 0
1.19854 0.0034136 0
1.1954 0.00329573 0
1.1922 0.00319135 0
1.18896 0.00309987 0
1.1857 0.0030229 0
1.18244 0.00295922 0
1.17918 0.00291029 0
1.17594 0.00287427 0
1.17273 0.00285265 0
1.16956 0.00284293 0
1.16643 0.00284682 0
1.16336 0.00286116 0
1.16034 0.00288802 0
1.15738 0.00292359 0
1.15449 0.00297043 0
1.15167 0.00302409 0
1.14891 0.00308773 0
1.14622 0.00315626 0
1.14359 0.00323353 0
1.14103 0.00331379 0
1.13854 0.00340165 0
1.1361 0.00349075 0
1.13372 0.00358642 0
1.1314 0.00368172 0
1.12913 0.00378273 0
1.1269 0.00388196 0
1.12472 0.00398615 0
1.12258 0.00408737 0
1.12047 0.00419293 0
1.1184 0.00429453 0
1.11636 0.00439994 0
1.11434 0.00450063 0
1.11235 0.00460466 0
1.11037 0.00470342 0
1.1084 0.00480507 0
1.10645 0.00490109 0
1.1045 0.00499956 0
1.10256 0.00509225 0
1.10063 0.00518689 0
1.09869 0.0052758 0
1.09675 0.00536609 0
1.09481 0.00545087 0
1.09286 0.00553637 0
1.09091 0.00561675 0
1.08894 0.00569708 0
1.08696 0.00577286 0
1.08497 0.00584766 0
1.08297 0.00591863 0
1.08096 0.00598759 0
1.07892 0.00605357 0
1.07688 0.00611633 0
1.07482 0.00617713 0
1.07274 0.00623335 0
1.07065 0.00628875 0
1.06854 0.00633809 0
1.06642 0.00638786 0
1.06428 0.00642993 0
1.06213 0.00647379 0
1.05996 0.00650821 0
1.05778 0.00654588 0
1.05559 0.00657226 0
1.05339 0.0066034 0
1.05117 0.00662133 0
1.04895 0.0066456 0
1.04673 0.00665468 0
1.04449 0.0066717 0
1.04226 0.00667155 0
1.04002 0.0066809 0
1.03779 0.00667114 0
1.03555 0.00667241 0
1.03333 0.00665266 0
1.03111 0.00664541 0
1.0289 0.00661532 0
1.0267 0.00659907 0
1.02452 0.0065583 0
1.02236 0.00653255 0
1.02023 0.00648077 0
1.01812 0.00644498 0
1.01604 0.00638185 0
1.01399 0.00633546 0
1.01199 0.00626066 0
1.01002 0.0062031 0
1.00811 0.00611635 0
1.00624 0.0060471 0
1.00444 0.0059483 0
1.00269 0.00586711 0
1.00102 0.00575665 0
0.999413 0.00566407 0
0.997889 0.00554382 0
0.99645 0.00544257 0
0.995104 0.00531833 0
0.993859 0.00521681 0
0.992734 0.00510463 0
0.991772 0.00502559 0
0.991102 0.00496706 0
0.957558 -0.000153368 0
0.921488 -0.000345825 0
0.891117 -0.000568232 0
0.865729 -0.000813984 0
0.84463 -0.00107681 0
0.827177 -0.00135368 0
0.812803 -0.00164041 0
0.801014 -0.00193666 0
0.79139 -0.00223941 0
0.78358 -0.00255022 0
0.777293 -0.00286652 0
0.77229 -0.00319113 0
0.768374 -0.00352147 0
0.765388 -0.00386118 0
0.763202 -0.00420743 0
0.761713 -0.00456433 0
0.760837 -0.00492866 0
0.760508 -0.00530477 0
0.760672 -0.00568896 0
0.761287 -0.00608566 0
0.76232 -0.00649064 0
0.763743 -0.00690823 0
0.765537 -0.00733365 0
0.767685 -0.00777102 0
0.770174 -0.00821498 0
0.772996 -0.00866931 0
0.776143 -0.00912806 0
0.779611 -0.00959454 0
0.783395 -0.0100623 0
0.787495 -0.010534 0
0.791907 -0.0110026 0
0.79663 -0.0114703 0
0.801665 -0.0119295 0
0.80701 -0.0123817 0
0.812663 -0.0128189 0
0.818624 -0.0132421 0
0.82489 -0.0136428 0
0.831459 -0.0140216 0
0.838328 -0.0143698 0
0.845492 -0.0146877 0
0.852945 -0.0149667 0
0.860682 -0.0152069 0
0.868693 -0.0154 0
0.87697 -0.0155462 0
0.885502 -0.0156378 0
0.894278 -0.0156755 0
0.903284 -0.0156523 0
0.912505 -0.0155697 0
0.921925 -0.0154218 0
0.931528 -0.0152111 0
0.941294 -0.0149327 0
0.951204 -0.0145905 0
0.961238 -0.0141811 0
0.971374 -0.0137094 0
0.98159 -0.0131736 0
0.991863 -0.0125798 0
1.00217 -0.0119276 0
1.01248 -0.0112244 0
1.02278 -0.0104709 0
1.03305 -0.00967563 0
1.04324 -0.00884017 0
1.05336 -0.00797398 0
1.06335 -0.00707932 0
1.07322 -0.00616619 0
1.08292 -0.00523726 0
1.09245 -0.0043028 0
1.10177 -0.00336557 0
1.11086 -0.00243575 0
1.11971 -0.00151594 0
1.12829 -0.000615968 0
1.13659 0.000262028 0
1.14458 0.00110886 0
1.15226 0.00192304 0
1.15959 0.00269625 0
1.16658 0.00342782 0
1.1732 0.00411051 0
1.17945 0.00474459 0
1.1853 0.00532402 0
1.19076 0.00585009 0
1.19581 0.00631807 0
1.20045 0.00673025 0
1.20467 0.00708326 0
1.20847 0.00738036 0
1.21184 0.00761954 0
1.2148 0.00780495 0
1.21733 0.00793583 0
1.21944 0.00801708 0
1.22114 0.00804912 0
1.22244 0.0080374 0
1.22334 0.00798334 0
1.22385 0.00789274 0
1.224 0.00776776 0
1.22378 0.00761437 0
1.22323 0.00743523 0
1.22235 0.0072362 0
1.22116 0.00702021 0
1.21969 0.00679279 0
1.21795 0.00655685 0
1.21597 0.00631742 0
1.21377 0.00607719 0
1.21136 0.00584054 0
1.20878 0.0056097 0
1.20604 0.00538837 0
1.20317 0.00517814 0
1.20019 0.00498205 0
1.19711 0.00480094 0
1.19396 0.00463723 0
1.19075 0.00449098 0
1.18751 0.00436409 0
1.18425 0.00425581 0
1.18098 0.00416771 0
1.17772 0.00409822 0
1.17448 0.00404876 0
1.17126 0.00401696 0
1.16809 0.0040043 0
1.16496 0.00400765 0
1.16188 0.00402872 0
1.15886 0.00406365 0
1.1559 0.00411457 0
1.15301 0.0041769 0
1.15018 0.00425335 0
1.14742 0.00433864 0
1.14472 0.00443617 0
1.14209 0.00454 0
1.13953 0.0046543 0
1.13703 0.00477247 0
1.13459 0.00489949 0
1.13221 0.00502815 0
1.12988 0.00516423 0
1.12761 0.00529997 0
1.12538 0.00544192 0
1.1232 0.0055818 0
1.12105 0.00572687 0
1.11895 0.00586842 0
1.11688 0.00601431 0
1.11483 0.00615552 0
1.11281 0.00630033 0
1.11082 0.00643957 0
1.10884 0.00658177 0
1.10688 0.00671776 0
1.10493 0.00685612 0
1.10298 0.00698788 0
1.10105 0.00712143 0
1.09912 0.00724818 0
1.09718 0.00737613 0
1.09525 0.00749731 0
1.09331 0.00761901 0
1.09137 0.00773416 0
1.08942 0.00784907 0
1.08746 0.00795784 0
1.0855 0.00806547 0
1.08351 0.00816753 0
1.08152 0.00826744 0
1.07952 0.00836251 0
1.0775 0.00845424 0
1.07546 0.00854203 0
1.07341 0.00862515 0
1.07135 0.00870533 0
1.06927 0.00877937 0
1.06717 0.00885161 0
1.06507 0.00891608 0
1.06294 0.00897999 0
1.0608 0.00903438 0
1.05865 0.00908955 0
1.05649 0.00913334 0
1.05431 0.00917932 0
1.05213 0.00921196 0
1.04993 0.00924825 0
1.04773 0.00926919 0
1.04552 0.00929529 0
1.04331 0.00930398 0
1.04109 0.00931933 0
1.03888 0.00931522 0
1.03666 0.00931926 0
1.03445 0.00930183 0
1.03224 0.00929397 0
1.03004 0.00926269 0
1.02785 0.0092423 0
1.02568 0.00919666 0
1.02352 0.00916309 0
1.02138 0.00910259 0
1.01926 0.00905516 0
1.01717 0.00897929 0
1.01511 0.00891728 0
1.01309 0.00882553 0
1.0111 0.00874819 0
1.00916 0.00864008 0
1.00726 0.00854668 0
1.00542 0.00842184 0
1.00363 0.00831186 0
1.0019 0.00817034 0
1.00024 0.0080439 0
0.998654 0.00788695 0
0.997146 0.00774609 0
0.995723 0.00757827 0
0.994391 0.00743002 0
0.99316 0.00726467 0
0.992047 0.00712896 0
0.991096 0.00700177 0
0.990434 0.00693039 0
0.9575 -0.000196733 0
0.921385 -0.000443366 0
0.890978 -0.000728836 0
0.865563 -0.0010435 0
0.844442 -0.00138108 0
0.826972 -0.00173533 0
0.812584 -0.00210388 0
0.800783 -0.0024827 0
0.791148 -0.00287217 0
0.783329 -0.00326945 0
0.777032 -0.00367671 0
0.772019 -0.00409154 0
0.768094 -0.00451726 0
0.765097 -0.00495141 0
0.7629 -0.00539799 0
0.7614 -0.00585424 0
0.760513 -0.0063245 0
0.760172 -0.00680553 0
0.760324 -0.0073018 0
0.760927 -0.00780948 0
0.761947 -0.00833296 0
0.763359 -0.00886778 0
0.76514 -0.00941804 0
0.767277 -0.00997865 0
0.769756 -0.0105533 0
0.772569 -0.0111361 0
0.775708 -0.0117303 0
0.77917 -0.0123292 0
0.782951 -0.0129354 0
0.787048 -0.0135415 0
0.79146 -0.0141493 0
0.796188 -0.0147507 0
0.801228 -0.0153467 0
0.806582 -0.0159285 0
0.812249 -0.0164964 0
0.818226 -0.017041 0
0.824513 -0.0175619 0
0.831107 -0.0180494 0
0.838003 -0.0185024 0
0.845199 -0.0189113 0
0.852689 -0.0192746 0
0.860465 -0.0195829 0
0.868519 -0.0198348 0
0.876843 -0.0200212 0
0.885424 -0.0201414 0
0.894252 -0.020187 0
0.903311 -0.020158 0
0.912587 -0.0200475 0
0.922063 -0.0198566 0
0.931721 -0.0195797 0
0.941542 -0.0192195 0
0.951507 -0.0187721 0
0.961592 -0.0182419 0
0.971777 -0.0176268 0
0.982038 -0.0169329 0
0.992352 -0.0161599 0
1.00269 -0.0153156 0
1.01304 -0.0144013 0
1.02337 -0.0134265 0
1.03365 -0.0123938 0
1.04386 -0.0113139 0
1.05397 -0.0101905 0
1.06397 -0.00903513 0
1.07382 -0.00785232 0
1.08351 -0.00665407 0
1.09301 -0.00544516 0
1.1023 -0.00423769 0
1.11135 -0.00303637 0
1.12015 -0.00185299 0
1.12868 -0.00069182 0
1.13692 0.000436051 0
1.14485 0.00152709 0
1.15245 0.00257122 0
1.15971 0.00356589 0
1.16662 0.00450231 0
1.17315 0.00537911 0
1.17931 0.00618897 0
1.18507 0.00693182 0
1.19044 0.00760197 0
1.1954 0.00820069 0
1.19994 0.00872399 0
1.20407 0.00917446 0
1.20777 0.00954981 0
1.21105 0.00985387 0
1.21391 0.010086 0
1.21636 0.0102511 0
1.21838 0.0103501 0
1.22 0.0103887 0
1.22122 0.0103691 0
1.22204 0.0102978 0
1.22248 0.0101779 0
1.22256 0.0100163 0
1.22228 0.00981684 0
1.22167 0.00958644 0
1.22074 0.00932941 0
1.2195 0.00905238 0
1.21799 0.00875976 0
1.21621 0.0084577 0
1.21419 0.00815034 0
1.21196 0.00784317 0
1.20953 0.0075398 0
1.20692 0.00724491 0
1.20416 0.00696136 0
1.20127 0.006693 0
1.19827 0.00644178 0
1.19518 0.00621072 0
1.19202 0.00600079 0
1.18881 0.0058143 0
1.18556 0.00565119 0
1.18229 0.00551322 0
1.17902 0.00539933 0
1.17575 0.00531094 0
1.17251 0.005246 0
1.16929 0.00520582 0
1.16611 0.00518743 0
1.16298 0.00519227 0
1.1599 0.00521648 0
1.15687 0.00526185 0
1.15391 0.00532369 0
1.15101 0.00540432 0
1.14818 0.00549828 0
1.14541 0.00560858 0
1.14272 0.005729 0
1.14008 0.00586336 0
1.13752 0.00600476 0
1.13501 0.00615784 0
1.13257 0.00631508 0
1.13018 0.00648201 0