# vtk DataFile Version 3.0
Flow field at step 1050
ASCII
DATASET STRUCTURED_GRID
DIMENSIONS 200 100 1
POINTS 20000 float
0.005 0.005 0
0.015 0.005 0
0.025 0.005 0
0.035 0.005 0
0.045 0.005 0
0.055 0.005 0
0.065 0.005 0
0.075 0.005 0
0.085 0.005 0
0.095 0.005 0
0.105 0.005 0
0.115 0.005 0
0.125 0.005 0
0.135 0.005 0
0.145 0.005 0
0.155 0.005 0
0.165 0.005 0
0.175 0.005 0
0.185 0.005 0
0.195 0.005 0
0.205 0.005 0
0.215 0.005 0
0.225 0.005 0
0.235 0.005 0
0.245 0.005 0
0.255 0.005 0
0.265 0.005 0
0.275 0.005 0
0.285 0.005 0
0.295 0.005 0
0.305 0.005 0
0.315 0.005 0
0.325 0.005 0
0.335 0.005 0
0.345 0.005 0
0.355 0.005 0
0.365 0.005 0
0.375 0.005 0
0.385 0.005 0
0.395 0.005 0
0.405 0.005 0
0.415 0.005 0
0.425 0.005 0
0.435 0.005 0
0.445 0.005 0
0.455 0.005 0
0.465 0.005 0
0.475 0.005 0
0.485 0.005 0
0.495 0.005 0
0.505 0.005 0
0.515 0.005 0
0.525 0.005 0
0.535 0.005 0
0.545 0.005 0
0.555 0.005 0
0.565 0.005 0
0.575 0.005 0
0.585 0.005 0
0.595 0.005 0
0.605 0.005 0
0.615 0.005 0
0.625 0.005 0
0.635 0.005 0
0.645 0.005 0
0.655 0.005 0
0.665 0.005 0
0.675 0.005 0
0.685 0.005 0
0.695 0.005 0
0.705 0.005 0
0.715 0.005 0
0.725 0.005 0
0.735 0.005 0
0.745 0.005 0
0.755 0.005 0
0.765 0.005 0
0.775 0.005 0
0.785 0.005 0
0.795 0.005 0
0.805 0.005 0
0.815 0.005 0
0.825 0.005 0
0.835 0.005 0
0.845 0.005 0
0.855 0.005 0
0.865 0.005 0
0.875 0.005 0
0.885 0.005 0
0.895 0.005 0
0.905 0.005 0
0.915 0.005 0
0.925 0.005 0
0.935 0.005 0
0.945 0.005 0
0.955 0.005 0
0.965 0.005 0
0.975 0.005 0
0.985 0.005 0
0.995 0.005 0
1.005 0.005 0
1.015 0.005 0
1.025 0.005 0
1.035 0.005 0
1.045 0.005 0
1.055 0.005 0
1.065 0.005 0
1.075 0.005 0
1.085 0.005 0
1.095 0.005 0
1.105 0.005 0
1.115 0.005 0
1.125 0.005 0
1.135 0.005 0
1.145 0.005 0
1.155 0.005 0
1.165 0.005 0
1.175 0.005 0
1.185 0.005 0
1.195 0.005 0
1.205 0.005 0
1.215 0.005 0
1.225 0.005 0
1.235 0.005 0
1.245 0.005 0
1.255 0.005 0
1.265 0.005 0
1.275 0.005 0
1.285 0.005 0
1.295 0.005 0
1.305 0.005 0
1.315 0.005 0
1.325 0.005 0
1.335 0.005 0
1.345 0.005 0
1.355 0.005 0
1.365 0.005 0
1.375 0.005 0
1.385 0.005 0
1.395 0.005 0
1.405 0.005 0
1.415 0.005 0
1.425 0.005 0
1.435 0.005 0
1.445 0.005 0
1.455 0.005 0
1.465 0.005 0
1.475 0.005 0
1.485 0.005 0
1.495 0.005 0
1.505 0.005 0
1.515 0.005 0
1.525 0.005 0
1.535 0.005 0
1.545 0.005 0
1.555 0.005 0
1.565 0.005 0
1.575 0.005 0
1.585 0.005 0
1.595 0.005 0
1.605 0.005 0
1.615 0.005 0
1.625 0.005 0
1.635 0.005 0
1.645 0.005 0
1.655 0.005 0
1.665 0.005 0
1.675 0.005 0
1.685 0.005 0
1.695 0.005 0
1.705 0.005 0
1.715 0.005 0
1.725 0.005 0
1.735 0.005 0
1.745 0.005 0
1.755 0.005 0
1.765 0.005 0
1.775 0.005 0
1.785 0.005 0
1.795 0.005 0
1.805 0.005 0
1.815 0.005 0
1.825 0.005 0
1.835 0.005 0
1.845 0.005 0
1.855 0.005 0
1.865 0.005 0
1.875 0.005 0
1.885 0.005 0
1.895 0.005 0
1.905 0.005 0
1.915 0.005 0
1.925 0.005 0
1.935 0.005 0
1.945 0.005 0
1.955 0.005 0
1.965 0.005 0
1.975 0.005 0
1.985 0.005 0
1.995 0.005 0
0.005 0.015 0
0.015 0.015 0
0.025 0.015 0
0.035 0.015 0
0.045 0.015 0
0.055 0.015 0
0.065 0.015 0
0.075 0.015 0
0.085 0.015 0
0.095 0.015 0
0.105 0.015 0
0.115 0.015 0
0.125 0.015 0
0.135 0.015 0
0.145 0.015 0
0.155 0.015 0
0.165 0.015 0
0.175 0.015 0
0.185 0.015 0
0.195 0.015 0
0.205 0.015 0
0.215 0.015 0
0.225 0.015 0
0.235 0.015 0
0.245 0.015 0
0.255 0.015 0
0.265 0.015 0
0.275 0.015 0
0.285 0.015 0
0.295 0.015 0
0.305 0.015 0
0.315 0.015 0
0.325 0.015 0
0.335 0.015 0
0.345 0.015 0
0.355 0.015 0
0.365 0.015 0
0.375 0.015 0
0.385 0.015 0
0.395 0.015 0
0.405 0.015 0
0.415 0.015 0
0.425 0.015 0
0.435 0.015 0
0.445 0.015 0
0.455 0.015 0
0.465 0.015 0
0.475 0.015 0
0.485 0.015 0
0.495 0.015 0
0.505 0.015 0
0.515 0.015 0
0.525 0.015 0
0.535 0.015 0
0.545 0.015 0
0.555 0.015 0
0.565 0.015 0
0.575 0.015 0
0.585 0.015 0
0.595 0.015 0
0.605 0.015 0
0.615 0.015 0
0.625 0.015 0
0.635 0.015 0
0.645 0.015 0
0.655 0.015 0
0.665 0.015 0
0.675 0.015 0
0.685 0.015 0
0.695 0.015 0
0.705 0.015 0
0.715 0.015 0
0.725 0.015 0
0.735 0.015 0
0.745 0.015 0
0.755 0.015 0
0.765 0.015 0
0.775 0.015 0
0.785 0.015 0
0.795 0.015 0
0.805 0.015 0
0.815 0.015 0
0.825 0.015 0
0.835 0.015 0
0.845 0.015 0
0.855 0.015 0
0.865 0.015 0
0.875 0.015 0
0.885 0.015 0
0.895 0.015 0
0.905 0.015 0
0.915 0.015 0
0.925 0.015 0
0.935 0.015 0
0.945 0.015 0
0.955 0.015 0
0.965 0.015 0
0.975 0.015 0
0.985 0.015 0
0.995 0.015 0
1.005 0.015 0
1.015 0.015 0
1.025 0.015 0
1.035 0.015 0
1.045 0.015 0
1.055 0.015 0
1.065 0.015 0
1.075 0.015 0
1.085 0.015 0
1.095 0.015 0
1.105 0.015 0
1.115 0.015 0
1.125 0.015 0
1.135 0.015 0
1.145 0.015 0
1.155 0.015 0
1.165 0.015 0
1.175 0.015 0
1.185 0.015 0
1.195 0.015 0
1.205 0.015 0
1.215 0.015 0
1.225 0.015 0
1.235 0.015 0
1.245 0.015 0
1.255 0.015 0
1.265 0.015 0
1.275 0.015 0
1.285 0.015 0
1.295 0.015 0
1.305 0.015 0
1.315 0.015 0
1.325 0.015 0
1.335 0.015 0
1.345 0.015 0
1.355 0.015 0
1.365 0.015 0
1.375 0.015 0
1.385 0.015 0
1.395 0.015 0
1.405 0.015 0
1.415 0.015 0
1.425 0.015 0
1.435 0.015 0
1.445 0.015 0
1.455 0.015 0
1.465 0.015 0
1.475 0.015 0
1.485 0.015 0
1.495 0.015 0
1.505 0.015 0
1.515 0.015 0
1.525 0.015 0
1.535 0.015 0
1.545 0.015 0
1.555 0.015 0
1.565 0.015 0
1.575 0.015 0
1.585 0.015 0
1.595 0.015 0
1.605 0.015 0
1.615 0.015 0
1.625 0.015 0
1.635 0.015 0
1.645 0.015 0
1.655 0.015 0
1.665 0.015 0
1.675 0.015 0
1.685 0.015 0
1.695 0.015 0
1.705 0.015 0
1.715 0.015 0
1.725 0.015 0
1.735 0.015 0
1.745 0.015 0
1.755 0.015 0
1.765 0.015 0
1.775 0.015 0
1.785 0.015 0
1.795 0.015 0
1.805 0.015 0
1.815 0.015 0
1.825 0.015 0
1.835 0.015 0
1.845 0.015 0
1.855 0.015 0
1.865 0.015 0
1.875 0.015 0
1.885 0.015 0
1.895 0.015 0
1.905 0.015 0
1.915 0.015 0
1.925 0.015 0
1.935 0.015 0
1.945 0.015 0
1.955 0.015 0
1.965 0.015 0
1.975 0.015 0
1.985 0.015 0
1.995 0.015 0
0.005 0.025 0
0.015 0.025 0
0.025 0.025 0
0.035 0.025 0
0.045 0.025 0
0.055 0.025 0
0.065 0.025 0
0.075 0.025 0
0.085 0.025 0
0.095 0.025 0
0.105 0.025 0
0.115 0.025 0
0.125 0.025 0
0.135 0.025 0
0.145 0.025 0
0.155 0.025 0
0.165 0.025 0
0.175 0.025 0
0.185 0.025 0
0.195 0.025 0
0.205 0.025 0
0.215 0.025 0
0.225 0.025 0
0.235 0.025 0
0.245 0.025 0
0.255 0.025 0
0.265 0.025 0
0.275 0.025 0
0.285 0.025 0
0.295 0.025 0
0.305 0.025 0
0.315 0.025 0
0.325 0.025 0
0.335 0.025 0
0.345 0.025 0
0.355 0.025 0
0.365 0.025 0
0.375 0.025 0
0.385 0.025 0
0.395 0.025 0
0.405 0.025 0
0.415 0.025 0
0.425 0.025 0
0.435 0.025 0
0.445 0.025 0
0.455 0.025 0
0.465 0.025 0
0.475 0.025 0
0.485 0.025 0
0.495 0.025 0
0.505 0.025 0
0.515 0.025 0
0.525 0.025 0
0.535 0.025 0
0.545 0.025 0
0.555 0.025 0
0.565 0.025 0
0.575 0.025 0
0.585 0.025 0
0.595 0.025 0
0.605 0.025 0
0.615 0.025 0
0.625 0.025 0
0.635 0.025 0
0.645 0.025 0
0.655 0.025 0
0.665 0.025 0
0.675 0.025 0
0.685 0.025 0
0.695 0.025 0
0.705 0.025 0
0.715 0.025 0
0.725 0.025 0
0.735 0.025 0
0.745 0.025 0
0.755 0.025 0
0.765 0.025 0
0.775 0.025 0
0.785 0.025 0
0.795 0.025 0
0.805 0.025 0
0.815 0.025 0
0.825 0.025 0
0.835 0.025 0
0.845 0.025 0
0.855 0.025 0
0.865 0.025 0
0.875 0.025 0
0.885 0.025 0
0.895 0.025 0
0.905 0.025 0
0.915 0.025 0
0.925 0.025 0
0.935 0.025 0
0.945 0.025 0
0.955 0.025 0
0.965 0.025 0
0.975 0.025 0
0.985 0.025 0
0.995 0.025 0
1.005 0.025 0
1.015 0.025 0
1.025 0.025 0
1.035 0.025 0
1.045 0.025 0
1.055 0.025 0
1.065 0.025 0
1.075 0.025 0
1.085 0.025 0
1.095 0.025 0
1.105 0.025 0
1.115 0.025 0
1.125 0.025 0
1.135 0.025 0
1.145 0.025 0
1.155 0.025 0
1.165 0.025 0
1.175 0.025 0
1.185 0.025 0
1.195 0.025 0
1.205 0.025 0
1.215 0.025 0
1.225 0.025 0
1.235 0.025 0
1.245 0.025 0
1.255 0.025 0
1.265 0.025 0
1.275 0.025 0
1.285 0.025 0
1.295 0.025 0
1.305 0.025 0
1.315 0.025 0
1.325 0.025 0
1.335 0.025 0
1.345 0.025 0
1.355 0.025 0
1.365 0.025 0
1.375 0.025 0
1.385 0.025 0
1.395 0.025 0
1.405 0.025 0
1.415 0.025 0
1.425 0.025 0
1.435 0.025 0
1.445 0.025 0
1.455 0.025 0
1.465 0.025 0
1.475 0.025 0
1.485 0.025 0
1.495 0.025 0
1.505 0.025 0
1.515 0.025 0
1.525 0.025 0
1.535 0.025 0
1.545 0.025 0
1.555 0.025 0
1.565 0.025 0
1.575 0.025 0
1.585 0.025 0
1.595 0.025 0
1.605 0.025 0
1.615 0.025 0
1.625 0.025 0
1.635 0.025 0
1.645 0.025 0
1.655 0.025 0
1.665 0.025 0
1.675 0.025 0
1.685 0.025 0
1.695 0.025 0
1.705 0.025 0
1.715 0.025 0
1.725 0.025 0
1.735 0.025 0
1.745 0.025 0
1.755 0.025 0
1.765 0.025 0
1.775 0.025 0
1.785 0.025 0
1.795 0.025 0
1.805 0.025 0
1.815 0.025 0
1.825 0.025 0
1.835 0.025 0
1.845 0.025 0
1.855 0.025 0
1.865 0.025 0
1.875 0.025 0
1.885 0.025 0
1.895 0.025 0
1.905 0.025 0
1.915 0.025 0
1.925 0.025 0
1.935 0.025 0
1.945 0.025 0
1.955 0.025 0
1.965 0.025 0
1.975 0.025 0
1.985 0.025 0
1.995 0.025 0
0.005 0.035 0
0.015 0.035 0
0.025 0.035 0
0.035 0.035 0
0.045 0.035 0
0.055 0.035 0
0.065 0.035 0
0.075 0.035 0
0.085 0.035 0
0.095 0.035 0
0.105 0.035 0
0.115 0.035 0
0.125 0.035 0
0.135 0.035 0
0.145 0.035 0
0.155 0.035 0
0.165 0.035 0
0.175 0.035 0
0.185 0.035 0
0.195 0.035 0
0.205 0.035 0
0.215 0.035 0
0.225 0.035 0
0.235 0.035 0
0.245 0.035 0
0.255 0.035 0
0.265 0.035 0
0.275 0.035 0
0.285 0.035 0
0.295 0.035 0
0.305 0.035 0
0.315 0.035 0
0.325 0.035 0
0.335 0.035 0
0.345 0.035 0
0.355 0.035 0
0.365 0.035 0
0.375 0.035 0
0.385 0.035 0
0.395 0.035 0
0.405 0.035 0
0.415 0.035 0
0.425 0.035 0
0.435 0.035 0
0.445 0.035 0
0.455 0.035 0
0.465 0.035 0
0.475 0.035 0
0.485 0.035 0
0.495 0.035 0
0.505 0.035 0
0.515 0.035 0
0.525 0.035 0
0.535 0.035 0
0.545 0.035 0
0.555 0.035 0
0.565 0.035 0
0.575 0.035 0
0.585 0.035 0
0.595 0.035 0
0.605 0.035 0
0.615 0.035 0
0.625 0.035 0
0.635 0.035 0
0.645 0.035 0
0.655 0.035 0
0.665 0.035 0
0.675 0.035 0
0.685 0.035 0
0.695 0.035 0
0.705 0.035 0
0.715 0.035 0
0.725 0.035 0
0.735 0.035 0
0.745 0.035 0
0.755 0.035 0
0.765 0.035 0
0.775 0.035 0
0.785 0.035 0
0.795 0.035 0
0.805 0.035 0
0.815 0.035 0
0.825 0.035 0
0.835 0.035 0
0.845 0.035 0
0.855 0.035 0
0.865 0.035 0
0.875 0.035 0
0.885 0.035 0
0.895 0.035 0
0.905 0.035 0
0.915 0.035 0
0.925 0.035 0
0.935 0.035 0
0.945 0.035 0
0.955 0.035 0
0.965 0.035 0
0.975 0.035 0
0.985 0.035 0
0.995 0.035 0
1.005 0.035 0
1.015 0.035 0
1.025 0.035 0
1.035 0.035 0
1.045 0.035 0
[...]
POINT_DATA 20000
VECTORS velocity float
0.965822 -1.92822e-05 0
0.936231 -4.39269e-05 0
0.910715 -7.2693e-05 0
0.888768 -0.000105174 0
0.869914 -0.000140016 0
0.853725 -0.000177573 0
0.839823 -0.000216281 0
0.827885 -0.000257227 0
0.817635 -0.000298581 0
0.808844 -0.00034205 0
0.801319 -0.00038554 0
0.794903 -0.000431227 0
0.789464 -0.000476801 0
0.784896 -0.000524736 0
0.781111 -0.000572597 0
0.778036 -0.000622973 0
0.775613 -0.00067342 0
0.773793 -0.000726465 0
0.772534 -0.000779773 0
0.771803 -0.000835646 0
0.771572 -0.000891977 0
0.771818 -0.000950694 0
0.77252 -0.00101003 0
0.773663 -0.0010714 0
0.775231 -0.00113349 0
0.777213 -0.00119709 0
0.779598 -0.00126139 0
0.782378 -0.00132649 0
0.785545 -0.00139218 0
0.789091 -0.00145775 0
0.793011 -0.00152365 0
0.797299 -0.00158834 0
0.80195 -0.00165297 0
0.806958 -0.00171512 0
0.812318 -0.00177669 0
0.818025 -0.00183435 0
0.824073 -0.00189079 0
0.830455 -0.00194179 0
0.837165 -0.00199086 0
0.844196 -0.00203288 0
0.851539 -0.00207221 0
0.859186 -0.0021029 0
0.867125 -0.00213019 0
0.875346 -0.0021473 0
0.883837 -0.0021604 0
0.892584 -0.00216192 0
0.901573 -0.00215902 0
0.910789 -0.00214336 0
0.920215 -0.00212311 0
0.929832 -0.0020892 0
0.939623 -0.00205087 0
0.949567 -0.0019983 0
0.959645 -0.00194185 0
0.969835 -0.00187092 0
0.980114 -0.00179706 0
0.99046 -0.00170884 0
1.00085 -0.00161901 0
1.01126 -0.00151528 0
1.02167 -0.00141166 0
1.03205 -0.00129485 0
1.04237 -0.00118019 0
1.05262 -0.00105329 0
1.06278 -0.000930826 0
1.0728 -0.000797184 0
1.08268 -0.000670489 0
1.0924 -0.000533708 0
1.10191 -0.000406495 0
1.11122 -0.000270237 0
1.12029 -0.00014621 0
1.1291 -1.40308e-05 0
1.13764 0.000103278 0
1.14588 0.000228074 0
1.15381 0.000335449 0
1.16141 0.000449946 0
1.16867 0.000544614 0
1.17556 0.000646395 0
1.18208 0.000726122 0
1.18821 0.000813354 0
1.19395 0.000876521 0
1.19927 0.000948017 0
1.20419 0.000993671 0
1.20867 0.00104892 0
1.21274 0.00107679 0
1.21637 0.00111596 0
1.21956 0.00112645 0
1.22233 0.00115037 0
1.22467 0.00114453 0
1.22657 0.0011546 0
1.22806 0.00113404 0
1.22914 0.00113221 0
1.22981 0.00109901 0
1.23008 0.00108758 0
1.22998 0.00104419 0
1.22952 0.00102575 0
1.2287 0.000974806 0
1.22756 0.000952051 0
1.2261 0.000896279 0
1.22435 0.000871868 0
1.22233 0.000813898 0
1.22006 0.000790314 0
1.21757 0.000732573 0
1.21486 0.000712007 0
1.21198 0.000656603 0
1.20893 0.000640865 0
1.20575 0.000589519 0
1.20244 0.000579983 0
1.19903 0.00053399 0
1.19555 0.000531579 0
1.19199 0.000491805 0
1.1884 0.000497007 0
1.18477 0.000463916 0
1.18112 0.000476827 0
1.17747 0.000450527 0
1.17382 0.000470908 0
1.17019 0.000451218 0
1.16658 0.000478566 0
1.16301 0.000465082 0
1.15946 0.000498702 0
1.15596 0.000490862 0
1.1525 0.00052993 0
1.14908 0.000527078 0
1.14572 0.000570701 0
1.14239 0.000572136 0
1.13912 0.000619398 0
1.13589 0.000624414 0
1.13271 0.000674411 0
1.12957 0.000682326 0
1.12647 0.000734193 0
1.12341 0.000744369 0
1.12039 0.000797295 0
1.11739 0.000809148 0
1.11443 0.000862387 0
1.1115 0.000875391 0
1.10859 0.000928264 0
1.1057 0.000941951 0
1.10282 0.000993846 0
1.09997 0.0010078 0
1.09713 0.00105817 0
1.0943 0.00107203 0
1.09147 0.00112039 0
1.08866 0.00113383 0
1.08585 0.00117976 0
1.08304 0.00119249 0
1.08024 0.00123561 0
1.07744 0.00124737 0
1.07464 0.00128737 0
1.07183 0.00129792 0
1.06903 0.00133453 0
1.06623 0.00134366 0
1.06343 0.00137667 0
1.06063 0.00138417 0
1.05783 0.00141341 0
1.05503 0.00141909 0
1.05223 0.00144445 0
1.04944 0.00144815 0
1.04665 0.00146956 0
1.04387 0.00147112 0
1.04109 0.00148857 0
1.03832 0.00148786 0
1.03557 0.00150137 0
1.03283 0.00149828 0
1.0301 0.00150795 0
1.02738 0.00150237 0
1.02469 0.00150833 0
1.02202 0.0015002 0
1.01936 0.00150262 0
1.01674 0.00149191 0
1.01414 0.001491 0
1.01156 0.00147769 0
1.00902 0.0014737 0
1.00651 0.00145783 0
1.00404 0.00145104 0
1.0016 0.00143265 0
0.999206 0.00142336 0
0.996849 0.00140254 0
0.994534 0.00139105 0
0.992265 0.00136793 0
0.990042 0.00135457 0
0.987867 0.00132927 0
0.985743 0.00131436 0
0.983671 0.00128705 0
0.981653 0.00127089 0
0.979691 0.00124173 0
0.977788 0.00122461 0
0.975945 0.00119376 0
0.974166 0.00117596 0
0.972451 0.0011436 0
0.970804 0.00112535 0
0.969227 0.00109164 0
0.967724 0.00107318 0
0.966296 0.00103834 0
0.964948 0.0010199 0
0.963683 0.000984349 0
0.962504 0.000966267 0
0.961414 0.000930976 0
0.960418 0.000913911 0
0.959521 0.000881336 0
0.958733 0.000866965 0
0.958079 0.000843237 0
0.957638 0.000836052 0
0.96581 -5.78849e-05 0
0.936209 -0.000131541 0
0.910685 -0.00021822 0
0.888731 -0.000314946 0
0.869872 -0.000420306 0
0.853679 -0.000531761 0
0.839774 -0.000649205 0
0.827833 -0.000770347 0
0.817582 -0.00089618 0
0.808788 -0.00102449 0
0.801262 -0.00115709 0
0.794843 -0.00129176 0
0.789403 -0.00143087 0
0.784833 -0.00157213 0
0.781045 -0.0017182 0
0.777969 -0.00186679 0
0.775543 -0.00202058 0
0.77372 -0.00217732 0
0.772458 -0.00233953 0
0.771724 -0.00250505 0
0.771491 -0.00267603 0
0.771733 -0.0028505 0
0.772433 -0.00303008 0
0.773573 -0.00321306 0
0.775138 -0.00340038 0
0.777118 -0.00359066 0
0.779501 -0.00378403 0
0.782279 -0.00397954 0
0.785445 -0.00417638 0
0.788991 -0.00437407 0
0.792911 -0.00457083 0
0.797199 -0.00476671 0
0.801851 -0.00495888 0
0.806861 -0.00514797 0
0.812224 -0.00533013 0
0.817934 -0.0055066 0
0.823987 -0.00567254 0
0.830375 -0.00582986 0
0.837092 -0.00597277 0
0.84413 -0.00610398 0
0.851482 -0.00621679 0
0.859137 -0.00631481 0
0.867087 -0.00639054 0
0.875319 -0.00644859 0
0.883822 -0.0064808 0
0.892581 -0.00649286 0
0.901583 -0.00647605 0
0.910812 -0.00643732 0
0.920251 -0.00636746 0
0.929881 -0.00627475 0
0.939685 -0.00614959 0
0.949643 -0.00600172 0
0.959733 -0.00582112 0
0.969934 -0.00561905 0
0.980224 -0.00538512 0
0.990579 -0.00513212 0
1.00098 -0.00484919 0
1.0114 -0.00455072 0
1.02181 -0.00422524 0
1.03219 -0.00388871 0
1.04252 -0.00352891 0
1.05277 -0.00316339 0
1.06292 -0.00277893 0
1.07295 -0.00239466 0
1.08283 -0.00199615 0
1.09253 -0.00160408 0
1.10204 -0.00120257 0
1.11134 -0.000813838 0
1.12039 -0.000420305 0
1.12919 -4.57644e-05 0
1.13772 0.000329358 0
1.14594 0.000679622 0
1.15385 0.00102687 0
1.16143 0.00134394 0
1.16867 0.00165519 0
1.17554 0.00193163 0
1.18204 0.00220042 0
1.18815 0.00243056 0
1.19386 0.00265226 0
1.19916 0.00283236 0
1.20405 0.00300435 0
1.20851 0.00313272 0
1.21255 0.00325443 0
1.21616 0.00333141 0
1.21933 0.00340428 0
1.22208 0.00343219 0
1.22439 0.00345954 0
1.22628 0.0034425 0
1.22774 0.00342935 0
1.2288 0.00337303 0
1.22945 0.00332575 0
1.22971 0.00323704 0
1.22959 0.00316301 0
1.22911 0.00304962 0
1.22828 0.00295679 0
1.22713 0.0028268 0
1.22566 0.00272328 0
1.2239 0.00258472 0
1.22187 0.00247828 0
1.2196 0.0023387 0
1.21709 0.00223646 0
1.21439 0.00210257 0
1.2115 0.00201062 0
1.20845 0.00188807 0
1.20526 0.00181131 0
1.20195 0.00170445 0
1.19854 0.00164645 0
1.19505 0.00155835 0
1.1915 0.00152137 0
1.18791 0.00145383 0
1.18428 0.00143889 0
1.18063 0.00139256 0
1.17698 0.0013996 0
1.17334 0.00137414 0
1.16971 0.00140223 0
1.1661 0.00139655 0
1.16252 0.00144407 0
1.15898 0.00145648 0
1.15548 0.00152135 0
1.15202 0.00154981 0
1.1486 0.00162964 0
1.14524 0.00167189 0
1.14192 0.00176417 0
1.13864 0.0018179 0
1.13542 0.00192011 0
1.13223 0.00198302 0
1.1291 0.00209271 0
1.126 0.00216262 0
1.12294 0.00227748 0
1.11992 0.00235235 0
1.11693 0.00247024 0
1.11397 0.00254824 0
1.11103 0.00266722 0
1.10812 0.00274667 0
1.10524 0.00286497 0
1.10237 0.00294439 0
1.09951 0.00306045 0
1.09667 0.00313851 0
1.09385 0.00325094 0
1.09103 0.00332647 0
1.08822 0.00343404 0
1.08541 0.003506 0
1.08261 0.00360762 0
1.07981 0.00367511 0
1.07701 0.00376983 0
1.07421 0.00383202 0
1.07142 0.00391902 0
1.06862 0.0039752 0
1.06582 0.00405379 0
1.06303 0.00410332 0
1.06023 0.00417291 0
1.05744 0.00421524 0
1.05464 0.00427537 0
1.05185 0.00431004 0
1.04907 0.00436036 0
1.04628 0.00438696 0
1.04351 0.00442723 0
1.04074 0.00444548 0
1.03798 0.00447559 0
1.03523 0.00448525 0
1.03249 0.0045052 0
1.02977 0.00450616 0
1.02707 0.00451608 0
1.02438 0.00450831 0
1.02171 0.00450842 0
1.01907 0.00449198 0
1.01645 0.00448265 0
1.01385 0.00445771 0
1.01129 0.00443939 0
1.00876 0.00440622 0
1.00625 0.00437944 0
1.00379 0.00433839 0
1.00136 0.00430381 0
0.998969 0.00425533 0
0.996619 0.00421363 0
0.994312 0.00415822 0
0.992049 0.00411016 0
0.989833 0.00404841 0
0.987665 0.00399476 0
0.985548 0.00392727 0
0.983482 0.00386881 0
0.981471 0.00379622 0
0.979516 0.00373373 0
0.977619 0.00365666 0
0.975783 0.00359085 0
0.974009 0.0035099 0
0.9723 0.00344145 0
0.970658 0.00335719 0
0.969087 0.00328675 0
0.967588 0.00319978 0
0.966166 0.00312801 0
0.964823 0.00303916 0
0.963562 0.00296701 0
0.962387 0.00287785 0
0.961301 0.0028072 0
0.960308 0.00272147 0
0.959414 0.00265684 0
0.958628 0.00258398 0
0.957978 0.002537 0
0.957537 0.00250067 0
0.965785 -9.63169e-05 0
0.936164 -0.000219087 0
0.910624 -0.00036309 0
0.888658 -0.000524537 0
0.869789 -0.000699324 0
0.853588 -0.000885612 0
0.839676 -0.0010802 0
0.82773 -0.00128294 0
0.817474 -0.0014912 0
0.808677 -0.00170617 0
0.801147 -0.00192551 0
0.794725 -0.00215131 0
0.78928 -0.00238136 0
0.784706 -0.0026183 0
0.780915 -0.00285997 0
0.777833 -0.00310919 0
0.775403 -0.00336383 0
0.773574 -0.00362664 0
0.772307 -0.00389551 0
0.771568 -0.00417286 0
0.771328 -0.00445667 0
0.771565 -0.00474879 0
0.772258 -0.00504734 0
0.773393 -0.00535344 0
0.774953 -0.00566536 0
0.776928 -0.00598336 0
0.779307 -0.00630594 0
0.782082 -0.00663231 0
0.785244 -0.00696127 0
0.788789 -0.00729093 0
0.792708 -0.00762038 0
0.796998 -0.00794659 0
0.801652 -0.00826901 0
0.806666 -0.00858344 0
0.812035 -0.00888977 0
0.817753 -0.00918263 0
0.823814 -0.00946245 0
0.830214 -0.00972279 0
0.836944 -0.00996472 0
0.843997 -0.0101808 0
0.851366 -0.010373 0
0.85904 -0.010533 0
0.86701 -0.0106637 0
0.875264 -0.0107562 0
0.88379 -0.0108146 0
0.892575 -0.0108295 0
0.901602 -0.0108064 0
0.910857 -0.0107357 0
0.920322 -0.0106243 0
0.929979 -0.0104626 0
0.939809 -0.0102592 0
0.949792 -0.0100045 0
0.959907 -0.00970902 0
0.970131 -0.00936301 0
0.980442 -0.00897895 0
0.990818 -0.00854711 0
1.00123 -0.0080819 0
1.01167 -0.0075734 0
1.02209 -0.00703794 0
1.03248 -0.00646523 0
1.04282 -0.00587346 0
1.05307 -0.00525171 0
1.06322 -0.00461992 0
1.07324 -0.00396628 0
1.08311 -0.00331235 0
1.0928 -0.00264507 0
1.10229 -0.00198758 0
1.11157 -0.00132523 0
1.1206 -0.000682656 0
1.12937 -4.32452e-05 0
1.13786 0.000566896 0
1.14606 0.00116667 0
1.15393 0.0017285 0
1.16148 0.00227392 0
1.16867 0.00277383 0
1.1755 0.00325271 0
1.18195 0.00367986 0
1.18801 0.00408296 0
1.19368 0.00442962 0
1.19893 0.00475098 0
1.20377 0.00501274 0
1.20819 0.00524977 0
1.21218 0.00542569 0
1.21574 0.00557922 0
1.21886 0.00567167 0
1.22156 0.00574579 0
1.22383 0.00576033 0
1.22567 0.00576209 0
1.2271 0.00570703 0
1.22812 0.00564604 0
1.22873 0.00553199 0
1.22896 0.00541981 0
1.22881 0.00525904 0
1.2283 0.00510853 0
1.22744 0.00491426 0
1.22626 0.00473887 0
1.22477 0.00452458 0
1.22299 0.00433756 0
1.22095 0.00411622 0
1.21866 0.00393002 0
1.21614 0.00371349 0
1.21343 0.0035391 0
1.21053 0.00333759 0
1.20747 0.00318417 0
1.20428 0.00300592 0
1.20097 0.00288051 0
1.19755 0.0027316 0
1.19407 0.00263904 0
1.19051 0.0025234 0
1.18692 0.00246642 0
1.18329 0.00238596 0
1.17965 0.00236538 0
1.176 0.00232025 0
1.17236 0.00233525 0
1.16873 0.00232414 0
1.16512 0.00237263 0
1.16155 0.00239313 0
1.15801 0.00247207 0
1.15451 0.002521 0
1.15105 0.00262672 0
1.14764 0.00270041 0
1.14428 0.0028289 0
1.14096 0.00292347 0
1.13769 0.00307061 0
1.13446 0.00318216 0
1.13128 0.00334389 0
1.12815 0.00346862 0
1.12505 0.00364106 0
1.122 0.00377543 0
1.11898 0.00395494 0
1.11599 0.00409566 0
1.11303 0.00427892 0
1.1101 0.00442302 0
1.1072 0.00460702 0
1.10432 0.00475181 0
1.10145 0.00493385 0
1.0986 0.00507696 0
1.09577 0.00525464 0
1.09295 0.00539395 0
1.09014 0.00556513 0
1.08733 0.00569876 0
1.08453 0.00586157 0
1.08174 0.00598787 0
1.07895 0.00614064 0
1.07616 0.00625815 0
1.07337 0.00639944 0
1.07058 0.00650687 0
1.06779 0.00663543 0
1.06501 0.00673165 0
1.06222 0.00684641 0
1.05944 0.00693044 0
1.05665 0.00703053 0
1.05387 0.00710152 0
1.05109 0.00718624 0
1.04832 0.00724351 0
1.04555 0.00731233 0
1.04279 0.00735535 0
1.04003 0.00740794 0
1.03728 0.00743632 0
1.03455 0.00747253 0
1.03183 0.00748603 0
1.02912 0.00750592 0
1.02643 0.00750448 0
1.02376 0.00750826 0
1.0211 0.007492 0
1.01847 0.00748008 0
1.01587 0.00744927 0
1.01329 0.00742225 0
1.01074 0.00737732 0
1.00822 0.00733596 0
1.00574 0.00727751 0
1.00329 0.00722272 0
1.00087 0.00715148 0
0.998495 0.0070843 0
0.996159 0.00700115 0
0.993867 0.00692271 0
0.991618 0.00682863 0
0.989416 0.00674013 0
0.987263 0.00663617 0
0.985158 0.00653886 0
0.983107 0.00642611 0
0.981108 0.00632123 0
0.979166 0.00620078 0
0.977282 0.00608954 0
0.975458 0.00596244 0
0.973695 0.00584597 0
0.971998 0.00571322 0
0.970367 0.00559258 0
0.968807 0.00545517 0
0.967318 0.0053314 0
0.965906 0.00519044 0
0.964571 0.00506484 0
0.963319 0.00492208 0
0.962152 0.00479689 0
0.961074 0.00465616 0
0.960088 0.00453643 0
0.9592 0.00440712 0
0.95842 0.00430564 0
0.957773 0.00421154 0
0.957337 0.00416091 0
0.965748 -0.000134652 0
0.936097 -0.000306086 0
0.910533 -0.000507575 0
0.888548 -0.000732794 0
0.869664 -0.000977567 0
0.853451 -0.00123721 0
0.83953 -0.00150995 0
0.827576 -0.00179233 0
0.817314 -0.00208449 0
0.808511 -0.00238377 0
0.800975 -0.00269169 0
0.794547 -0.00300602 0
0.789097 -0.00332916 0
0.784516 -0.00365909 0
0.780719 -0.00399865 0
0.77763 -0.00434589 0
0.775192 -0.00470373 0
0.773355 -0.00507022 0
0.77208 -0.00544806 0
0.771331 -0.00583526 0
0.771083 -0.00623401 0
0.771311 -0.00664235 0
0.771996 -0.00706171 0
0.773121 -0.00749015 0
0.774674 -0.00792818 0
0.776641 -0.00837391 0
0.779014 -0.00882674 0
0.781784 -0.00928486 0
0.784943 -0.00974648 0
0.788484 -0.0102099 0
0.792404 -0.010672 0
0.796694 -0.0111313 0
0.801352 -0.0115832 0
0.806372 -0.0120266 0
0.811749 -0.0124557 0
0.817478 -0.0128694 0
0.823554 -0.0132609 0
0.82997 -0.0136294 0
0.83672 -0.0139671 0
0.843796 -0.0142741 0
0.85119 -0.0145412 0
0.858892 -0.0147696 0
0.866893 -0.0149497 0
0.87518 -0.0150835 0
0.883741 -0.0151611 0
0.892562 -0.015186 0
0.901628 -0.0151481 0
0.910922 -0.0150528 0
0.920427 -0.0148899 0
0.930124 -0.0146668 0
0.939993 -0.0143737 0
0.950014 -0.0140201 0
0.960166 -0.0135966 0
0.970424 -0.013115 0
0.980768 -0.0125663 0
0.991172 -0.0119646 0
1.00161 -0.0113012 0
1.01207 -0.0105925 0
1.02251 -0.00983002 0
1.03291 -0.00903216 0
1.04325 -0.00819022 0
1.05351 -0.00732474 0
1.06366 -0.00642643 0
1.07367 -0.00551767 0
1.08352 -0.00458819 0
1.09319 -0.00366202 0
1.10266 -0.0027275 0
1.1119 -0.00181016 0
1.1209 -0.000896482 0
1.12963 -1.33525e-05 0
1.13808 0.00085499 0
1.14622 0.00168042 0
1.15404 0.00248134 0
1.16152 0.00322843 0
1.16866 0.00394311 0
1.17542 0.00459481 0
1.18181 0.00520834 0
1.1878 0.00575182 0
1.19339 0.00625371 0
1.19858 0.00668071 0
1.20334 0.00706518 0
1.20769 0.00737223 0
1.2116 0.0076383 0
1.21509 0.00782669 0
1.21815 0.00797806 0
1.22077 0.00805363 0
1.22298 0.00809837 0
1.22476 0.0080711 0
1.22612 0.00802109 0
1.22708 0.00790448 0
1.22764 0.00777472 0
1.22781 0.00758495 0
1.22762 0.00739269 0
1.22706 0.00714774 0
1.22617 0.00691147 0
1.22495 0.00663008 0
1.22343 0.00636852 0
1.22162 0.00606919 0
1.21955 0.00580032 0
1.21724 0.00550035 0
1.21471 0.0052405 0
1.21197 0.00495524 0
1.20907 0.00471843 0
1.206 0.00446064 0
1.2028 0.0042581 0
1.19948 0.00403764 0
1.19607 0.00387759 0
1.19258 0.00370131 0
1.18903 0.00358896 0
1.18543 0.00346079 0
1.1818 0.00339855 0
1.17816 0.0033198 0
1.17452 0.00330762 0
1.17087 0.00327737 0
1.16725 0.0033132 0
1.16365 0.00332877 0
1.16008 0.00340904 0
1.15654 0.00346644 0
1.15305 0.00358647 0
1.14959 0.00368087 0
1.14619 0.00383535 0
1.14283 0.00396144 0
1.13951 0.00414475 0
1.13625 0.00429707 0
1.13303 0.00450353 0
1.12985 0.00467669 0
1.12672 0.00490082 0
1.12363 0.00508967 0
1.12058 0.0053263 0
1.11756 0.00552605 0
1.11458 0.00577038 0
1.11163 0.00597664 0
1.10871 0.0062243 0
1.10581 0.00643311 0
1.10293 0.00668017 0
1.10007 0.00688798 0
1.09724 0.00713092 0
1.09441 0.00733458 0
1.0916 0.00757028 0
1.08879 0.00776698 0
1.086 0.00799266 0
1.08321 0.00817992 0
1.08043 0.00839315 0
1.07765 0.00856879 0
1.07487 0.00876741 0
1.0721 0.0089295 0
1.06933 0.00911165 0
1.06655 0.00925848 0
1.06378 0.00942254 0
1.06101 0.00955265 0
1.05825 0.00969727 0
1.05548 0.00980939 0
1.05272 0.00993345 0
1.04996 0.0100265 0
1.0472 0.0101292 0
1.04445 0.0102024 0
1.04171 0.0102829 0
1.03897 0.0103356 0
1.03624 0.0103938 0
1.03353 0.0104256 0
1.03083 0.0104613 0
1.02814 0.010472 0
1.02547 0.0104853 0
1.02282 0.010475 0
1.02019 0.0104663 0
1.01759 0.0104354 0
1.015 0.0104054 0
1.01245 0.0103543 0
1.00992 0.0103038 0
1.00742 0.0102334 0
1.00496 0.0101637 0
1.00253 0.0100748 0
1.00014 0.00998713 0
0.997785 0.00988106 0
0.995471 0.00977686 0
0.9932 0.00965491 0
0.990973 0.0095358 0
0.988792 0.00939943 0
0.986659 0.00926709 0
0.984576 0.00911782 0
0.982544 0.00897396 0
0.980566 0.00881336 0
0.978642 0.00865967 0
0.976777 0.00848925 0
0.97497 0.00832733 0
0.973226 0.00814856 0
0.971546 0.00797992 0
0.969932 0.00779416 0
0.968387 0.00762024 0
0.966914 0.00742892 0
0.965516 0.00725127 0
0.964195 0.00705623 0
0.962956 0.00687715 0
0.961801 0.00668187 0
0.960734 0.00650606 0
0.959758 0.00631864 0
0.95888 0.00615754 0
0.958107 0.00599841 0
0.957469 0.00588126 0
0.957036 0.00580191 0
0.965699 -0.000172682 0
0.936007 -0.000392696 0
0.910412 -0.000650877 0
0.888401 -0.000940084 0
0.869497 -0.0012535 0
0.853269 -0.00158713 0
0.839335 -0.00193617 0
0.827371 -0.00229926 0
0.8171 -0.00267303 0
0.808289 -0.00305812 0
0.800745 -0.00345202 0
0.79431 -0.00385673 0
0.788852 -0.00427022 0
0.784264 -0.00469524 0
0.780456 -0.00512997 0
0.777359 -0.00557748 0
0.77491 -0.006036 0
0.773063 -0.00650848 0
0.771776 -0.0069931 0
0.771016 -0.00749239 0
0.770755 -0.00800445 0
0.770972 -0.00853108 0
0.771644 -0.00907028 0
0.772759 -0.00962292 0
0.7743 -0.0101869 0
0.776258 -0.0107619 0
0.778622 -0.0113457 0
0.781384 -0.0119367 0
0.784537 -0.0125327 0
0.788076 -0.0131305 0
0.791993 -0.013728 0
0.796286 -0.0143205 0
0.800948 -0.0149056 0
0.805976 -0.0154775 0
0.811364 -0.0160339 0
0.817108 -0.0165672 0
0.823202 -0.0170756 0
0.829641 -0.0175502 0
0.836416 -0.0179897 0
0.843523 -0.0183841 0
0.85095 -0.0187327 0
0.85869 -0.019025 0
0.866732 -0.0192611 0
0.875063 -0.0194301 0
0.883671 -0.0195337 0
0.892541 -0.019561 0
0.901658 -0.0195152 0
0.911005 -0.0193857 0
0.920562 -0.0191782 0
0.930312 -0.0188824 0
0.940234 -0.0185063 0
0.950306 -0.0180407 0
0.960506 -0.0174962 0
0.970811 -0.0168642 0
0.981196 -0.0161581 0
0.991639 -0.0153702 0
1.00211 -0.0145165 0
1.01259 -0.01359 0
1.02306 -0.0126093 0
1.03348 -0.0115674 0
1.04383 -0.0104855 0
1.05409 -0.00935661 0
1.06423 -0.00820372 0
1.07423 -0.00701935 0
1.08406 -0.00582837 0
1.0937 -0.00462215 0
1.10313 -0.0034271 0
1.11234 -0.00223294 0
1.12128 -0.00106738 0
1.12996 8.20153e-05 0
1.13834 0.00118644 0
1.14642 0.00226097 0
1.15416 0.00327583 0
1.16157 0.00424918 0
1.16861 0.00515034 0
1.17529 0.00600097 0
1.18159 0.00676947 0
1.18749 0.00748131 0
1.19299 0.00810392 0
1.19807 0.00866688 0
1.20274 0.00913649 0
1.20699 0.00954663 0
1.21081 0.00986231 0
1.2142 0.0101218 0
1.21716 0.0102886 0
1.2197 0.0104056 0
1.22181 0.0104341 0
1.22351 0.0104216 0
1.22479 0.0103274 0
1.22567 0.0102032 0
1.22616 0.0100056 0
1.22627 0.00979052 0
1.226 0.00951169 0
1.22539 0.00922893 0
1.22444 0.00889256 0
1.22318 0.00856606 0
1.22161 0.00819607 0
1.21977 0.00784936 0
1.21767 0.00746865 0
1.21533 0.00712365 0
1.21277 0.00675302 0
1.21002 0.00642907 0
1.2071 0.00608634 0
1.20402 0.00579945 0
1.20081 0.00549893 0
1.19749 0.00526139 0
1.19407 0.00501356 0
1.19058 0.00483381 0
1.18702 0.00464538 0
1.18343 0.00452817 0
1.1798 0.00440232 0
1.17617 0.00434905 0
1.17252 0.00428589 0
1.16889 0.00429515 0
1.16527 0.00429227 0
1.16167 0.00436043 0
1.15811 0.00441348 0
1.15458 0.00453526 0
1.15109 0.00463855 0
1.14764 0.00480759 0
1.14424 0.0049546 0
1.14088 0.00516393 0