# vtk DataFile Version 3.0
Flow field at step 750
ASCII
DATASET STRUCTURED_GRID
DIMENSIONS 200 100 1
POINTS 20000 float
0.005 0.005 0
0.015 0.005 0
0.025 0.005 0
0.035 0.005 0
0.045 0.005 0
0.055 0.005 0
0.065 0.005 0
0.075 0.005 0
0.085 0.005 0
0.095 0.005 0
0.105 0.005 0
0.115 0.005 0
0.125 0.005 0
0.135 0.005 0
0.145 0.005 0
0.155 0.005 0
0.165 0.005 0
0.175 0.005 0
0.185 0.005 0
0.195 0.005 0
0.205 0.005 0
0.215 0.005 0
0.225 0.005 0
0.235 0.005 0
0.245 0.005 0
0.255 0.005 0
0.265 0.005 0
0.275 0.005 0
0.285 0.005 0
0.295 0.005 0
0.305 0.005 0
0.315 0.005 0
0.325 0.005 0
0.335 0.005 0
0.345 0.005 0
0.355 0.005 0
0.365 0.005 0
0.375 0.005 0
0.385 0.005 0
0.395 0.005 0
0.405 0.005 0
0.415 0.005 0
0.425 0.005 0
0.435 0.005 0
0.445 0.005 0
0.455 0.005 0
0.465 0.005 0
0.475 0.005 0
0.485 0.005 0
0.495 0.005 0
0.505 0.005 0
0.515 0.005 0
0.525 0.005 0
0.535 0.005 0
0.545 0.005 0
0.555 0.005 0
0.565 0.005 0
0.575 0.005 0
0.585 0.005 0
0.595 0.005 0
0.605 0.005 0
0.615 0.005 0
0.625 0.005 0
0.635 0.005 0
0.645 0.005 0
0.655 0.005 0
0.665 0.005 0
0.675 0.005 0
0.685 0.005 0
0.695 0.005 0
0.705 0.005 0
0.715 0.005 0
0.725 0.005 0
0.735 0.005 0
0.745 0.005 0
0.755 0.005 0
0.765 0.005 0
0.775 0.005 0
0.785 0.005 0
0.795 0.005 0
0.805 0.005 0
0.815 0.005 0
0.825 0.005 0
0.835 0.005 0
0.845 0.005 0
0.855 0.005 0
0.865 0.005 0
0.875 0.005 0
0.885 0.005 0
0.895 0.005 0
0.905 0.005 0
0.915 0.005 0
0.925 0.005 0
0.935 0.005 0
0.945 0.005 0
0.955 0.005 0
0.965 0.005 0
0.975 0.005 0
0.985 0.005 0
0.995 0.005 0
1.005 0.005 0
1.015 0.005 0
1.025 0.005 0
1.035 0.005 0
1.045 0.005 0
1.055 0.005 0
1.065 0.005 0
1.075 0.005 0
1.085 0.005 0
1.095 0.005 0
1.105 0.005 0
1.115 0.005 0
1.125 0.005 0
1.135 0.005 0
1.145 0.005 0
1.155 0.005 0
1.165 0.005 0
1.175 0.005 0
1.185 0.005 0
1.195 0.005 0
1.205 0.005 0
1.215 0.005 0
1.225 0.005 0
1.235 0.005 0
1.245 0.005 0
1.255 0.005 0
1.265 0.005 0
1.275 0.005 0
1.285 0.005 0
1.295 0.005 0
1.305 0.005 0
1.315 0.005 0
1.325 0.005 0
1.335 0.005 0
1.345 0.005 0
1.355 0.005 0
1.365 0.005 0
1.375 0.005 0
1.385 0.005 0
1.395 0.005 0
1.405 0.005 0
1.415 0.005 0
1.425 0.005 0
1.435 0.005 0
1.445 0.005 0
1.455 0.005 0
1.465 0.005 0
1.475 0.005 0
1.485 0.005 0
1.495 0.005 0
1.505 0.005 0
1.515 0.005 0
1.525 0.005 0
1.535 0.005 0
1.545 0.005 0
1.555 0.005 0
1.565 0.005 0
1.575 0.005 0
1.585 0.005 0
1.595 0.005 0
1.605 0.005 0
1.615 0.005 0
1.625 0.005 0
1.635 0.005 0
1.645 0.005 0
1.655 0.005 0
1.665 0.005 0
1.675 0.005 0
1.685 0.005 0
1.695 0.005 0
1.705 0.005 0
1.715 0.005 0
1.725 0.005 0
1.735 0.005 0
1.745 0.005 0
1.755 0.005 0
1.765 0.005 0
1.775 0.005 0
1.785 0.005 0
1.795 0.005 0
1.805 0.005 0
1.815 0.005 0
1.825 0.005 0
1.835 0.005 0
1.845 0.005 0
1.855 0.005 0
1.865 0.005 0
1.875 0.005 0
1.885 0.005 0
1.895 0.005 0
1.905 0.005 0
1.915 0.005 0
1.925 0.005 0
1.935 0.005 0
1.945 0.005 0
1.955 0.005 0
1.965 0.005 0
1.975 0.005 0
1.985 0.005 0
1.995 0.005 0
0.005 0.015 0
0.015 0.015 0
0.025 0.015 0
0.035 0.015 0
0.045 0.015 0
0.055 0.015 0
0.065 0.015 0
0.075 0.015 0
0.085 0.015 0
0.095 0.015 0
0.105 0.015 0
0.115 0.015 0
0.125 0.015 0
0.135 0.015 0
0.145 0.015 0
0.155 0.015 0
0.165 0.015 0
0.175 0.015 0
0.185 0.015 0
0.195 0.015 0
0.205 0.015 0
0.215 0.015 0
0.225 0.015 0
0.235 0.015 0
0.245 0.015 0
0.255 0.015 0
0.265 0.015 0
0.275 0.015 0
0.285 0.015 0
0.295 0.015 0
0.305 0.015 0
0.315 0.015 0
0.325 0.015 0
0.335 0.015 0
0.345 0.015 0
0.355 0.015 0
0.365 0.015 0
0.375 0.015 0
0.385 0.015 0
0.395 0.015 0
0.405 0.015 0
0.415 0.015 0
0.425 0.015 0
0.435 0.015 0
0.445 0.015 0
0.455 0.015 0
0.465 0.015 0
0.475 0.015 0
0.485 0.015 0
0.495 0.015 0
0.505 0.015 0
0.515 0.015 0
0.525 0.015 0
0.535 0.015 0
0.545 0.015 0
0.555 0.015 0
0.565 0.015 0
0.575 0.015 0
0.585 0.015 0
0.595 0.015 0
0.605 0.015 0
0.615 0.015 0
0.625 0.015 0
0.635 0.015 0
0.645 0.015 0
0.655 0.015 0
0.665 0.015 0
0.675 0.015 0
0.685 0.015 0
0.695 0.015 0
0.705 0.015 0
0.715 0.015 0
0.725 0.015 0
0.735 0.015 0
0.745 0.015 0
0.755 0.015 0
0.765 0.015 0
0.775 0.015 0
0.785 0.015 0
0.795 0.015 0
0.805 0.015 0
0.815 0.015 0
0.825 0.015 0
0.835 0.015 0
0.845 0.015 0
0.855 0.015 0
0.865 0.015 0
0.875 0.015 0
0.885 0.015 0
0.895 0.015 0
0.905 0.015 0
0.915 0.015 0
0.925 0.015 0
0.935 0.015 0
0.945 0.015 0
0.955 0.015 0
0.965 0.015 0
0.975 0.015 0
0.985 0.015 0
0.995 0.015 0
1.005 0.015 0
1.015 0.015 0
1.025 0.015 0
1.035 0.015 0
1.045 0.015 0
1.055 0.015 0
1.065 0.015 0
1.075 0.015 0
1.085 0.015 0
1.095 0.015 0
1.105 0.015 0
1.115 0.015 0
1.125 0.015 0
1.135 0.015 0
1.145 0.015 0
1.155 0.015 0
1.165 0.015 0
1.175 0.015 0
1.185 0.015 0
1.195 0.015 0
1.205 0.015 0
1.215 0.015 0
1.225 0.015 0
1.235 0.015 0
1.245 0.015 0
1.255 0.015 0
1.265 0.015 0
1.275 0.015 0
1.285 0.015 0
1.295 0.015 0
1.305 0.015 0
1.315 0.015 0
1.325 0.015 0
1.335 0.015 0
1.345 0.015 0
1.355 0.015 0
1.365 0.015 0
1.375 0.015 0
1.385 0.015 0
1.395 0.015 0
1.405 0.015 0
1.415 0.015 0
1.425 0.015 0
1.435 0.015 0
1.445 0.015 0
1.455 0.015 0
1.465 0.015 0
1.475 0.015 0
1.485 0.015 0
1.495 0.015 0
1.505 0.015 0
1.515 0.015 0
1.525 0.015 0
1.535 0.015 0
1.545 0.015 0
1.555 0.015 0
1.565 0.015 0
1.575 0.015 0
1.585 0.015 0
1.595 0.015 0
1.605 0.015 0
1.615 0.015 0
1.625 0.015 0
1.635 0.015 0
1.645 0.015 0
1.655 0.015 0
1.665 0.015 0
1.675 0.015 0
1.685 0.015 0
1.695 0.015 0
1.705 0.015 0
1.715 0.015 0
1.725 0.015 0
1.735 0.015 0
1.745 0.015 0
1.755 0.015 0
1.765 0.015 0
1.775 0.015 0
1.785 0.015 0
1.795 0.015 0
1.805 0.015 0
1.815 0.015 0
1.825 0.015 0
1.835 0.015 0
1.845 0.015 0
1.855 0.015 0
1.865 0.015 0
1.875 0.015 0
1.885 0.015 0
1.895 0.015 0
1.905 0.015 0
1.915 0.015 0
1.925 0.015 0
1.935 0.015 0
1.945 0.015 0
1.955 0.015 0
1.965 0.015 0
1.975 0.015 0
1.985 0.015 0
1.995 0.015 0
0.005 0.025 0
0.015 0.025 0
0.025 0.025 0
0.035 0.025 0
0.045 0.025 0
0.055 0.025 0
0.065 0.025 0
0.075 0.025 0
0.085 0.025 0
0.095 0.025 0
0.105 0.025 0
0.115 0.025 0
0.125 0.025 0
0.135 0.025 0
0.145 0.025 0
0.155 0.025 0
0.165 0.025 0
0.175 0.025 0
0.185 0.025 0
0.195 0.025 0
0.205 0.025 0
0.215 0.025 0
0.225 0.025 0
0.235 0.025 0
0.245 0.025 0
0.255 0.025 0
0.265 0.025 0
0.275 0.025 0
0.285 0.025 0
0.295 0.025 0
0.305 0.025 0
0.315 0.025 0
0.325 0.025 0
0.335 0.025 0
0.345 0.025 0
0.355 0.025 0
0.365 0.025 0
0.375 0.025 0
0.385 0.025 0
0.395 0.025 0
0.405 0.025 0
0.415 0.025 0
0.425 0.025 0
0.435 0.025 0
0.445 0.025 0
0.455 0.025 0
0.465 0.025 0
0.475 0.025 0
0.485 0.025 0
0.495 0.025 0
0.505 0.025 0
0.515 0.025 0
0.525 0.025 0
0.535 0.025 0
0.545 0.025 0
0.555 0.025 0
0.565 0.025 0
0.575 0.025 0
0.585 0.025 0
0.595 0.025 0
0.605 0.025 0
0.615 0.025 0
0.625 0.025 0
0.635 0.025 0
0.645 0.025 0
0.655 0.025 0
0.665 0.025 0
0.675 0.025 0
0.685 0.025 0
0.695 0.025 0
0.705 0.025 0
0.715 0.025 0
0.725 0.025 0
0.735 0.025 0
0.745 0.025 0
0.755 0.025 0
0.765 0.025 0
0.775 0.025 0
0.785 0.025 0
0.795 0.025 0
0.805 0.025 0
0.815 0.025 0
0.825 0.025 0
0.835 0.025 0
0.845 0.025 0
0.855 0.025 0
0.865 0.025 0
0.875 0.025 0
0.885 0.025 0
0.895 0.025 0
0.905 0.025 0
0.915 0.025 0
0.925 0.025 0
0.935 0.025 0
0.945 0.025 0
0.955 0.025 0
0.965 0.025 0
0.975 0.025 0
0.985 0.025 0
0.995 0.025 0
1.005 0.025 0
1.015 0.025 0
1.025 0.025 0
1.035 0.025 0
1.045 0.025 0
1.055 0.025 0
1.065 0.025 0
1.075 0.025 0
1.085 0.025 0
1.095 0.025 0
1.105 0.025 0
1.115 0.025 0
1.125 0.025 0
1.135 0.025 0
1.145 0.025 0
1.155 0.025 0
1.165 0.025 0
1.175 0.025 0
1.185 0.025 0
1.195 0.025 0
1.205 0.025 0
1.215 0.025 0
1.225 0.025 0
1.235 0.025 0
1.245 0.025 0
1.255 0.025 0
1.265 0.025 0
1.275 0.025 0
1.285 0.025 0
1.295 0.025 0
1.305 0.025 0
1.315 0.025 0
1.325 0.025 0
1.335 0.025 0
1.345 0.025 0
1.355 0.025 0
1.365 0.025 0
1.375 0.025 0
1.385 0.025 0
1.395 0.025 0
1.405 0.025 0
1.415 0.025 0
1.425 0.025 0
1.435 0.025 0
1.445 0.025 0
1.455 0.025 0
1.465 0.025 0
1.475 0.025 0
1.485 0.025 0
1.495 0.025 0
1.505 0.025 0
1.515 0.025 0
1.525 0.025 0
1.535 0.025 0
1.545 0.025 0
1.555 0.025 0
1.565 0.025 0
1.575 0.025 0
1.585 0.025 0
1.595 0.025 0
1.605 0.025 0
1.615 0.025 0
1.625 0.025 0
1.635 0.025 0
1.645 0.025 0
1.655 0.025 0
1.665 0.025 0
1.675 0.025 0
1.685 0.025 0
1.695 0.025 0
1.705 0.025 0
1.715 0.025 0
1.725 0.025 0
1.735 0.025 0
1.745 0.025 0
1.755 0.025 0
1.765 0.025 0
1.775 0.025 0
1.785 0.025 0
1.795 0.025 0
1.805 0.025 0
1.815 0.025 0
1.825 0.025 0
1.835 0.025 0
1.845 0.025 0
1.855 0.025 0
1.865 0.025 0
1.875 0.025 0
1.885 0.025 0
1.895 0.025 0
1.905 0.025 0
1.915 0.025 0
1.925 0.025 0
1.935 0.025 0
1.945 0.025 0
1.955 0.025 0
1.965 0.025 0
1.975 0.025 0
1.985 0.025 0
1.995 0.025 0
0.005 0.035 0
0.015 0.035 0
0.025 0.035 0
0.035 0.035 0
0.045 0.035 0
0.055 0.035 0
0.065 0.035 0
0.075 0.035 0
0.085 0.035 0
0.095 0.035 0
0.105 0.035 0
0.115 0.035 0
0.125 0.035 0
0.135 0.035 0
0.145 0.035 0
0.155 0.035 0
0.165 0.035 0
0.175 0.035 0
0.185 0.035 0
0.195 0.035 0
0.205 0.035 0
0.215 0.035 0
0.225 0.035 0
0.235 0.035 0
0.245 0.035 0
0.255 0.035 0
0.265 0.035 0
0.275 0.035 0
0.285 0.035 0
0.295 0.035 0
0.305 0.035 0
0.315 0.035 0
0.325 0.035 0
0.335 0.035 0
0.345 0.035 0
0.355 0.035 0
0.365 0.035 0
0.375 0.035 0
0.385 0.035 0
0.395 0.035 0
0.405 0.035 0
0.415 0.035 0
0.425 0.035 0
0.435 0.035 0
0.445 0.035 0
0.455 0.035 0
0.465 0.035 0
0.475 0.035 0
0.485 0.035 0
0.495 0.035 0
0.505 0.035 0
0.515 0.035 0
0.525 0.035 0
0.535 0.035 0
0.545 0.035 0
0.555 0.035 0
0.565 0.035 0
0.575 0.035 0
0.585 0.035 0
0.595 0.035 0
0.605 0.035 0
0.615 0.035 0
0.625 0.035 0
0.635 0.035 0
0.645 0.035 0
0.655 0.035 0
0.665 0.035 0
0.675 0.035 0
0.685 0.035 0
0.695 0.035 0
0.705 0.035 0
0.715 0.035 0
0.725 0.035 0
0.735 0.035 0
0.745 0.035 0
0.755 0.035 0
0.765 0.035 0
0.775 0.035 0
0.785 0.035 0
0.795 0.035 0
0.805 0.035 0
0.815 0.035 0
0.825 0.035 0
0.835 0.035 0
0.845 0.035 0
0.855 0.035 0
0.865 0.035 0
0.875 0.035 0
0.885 0.035 0
0.895 0.035 0
0.905 0.035 0
0.915 0.035 0
0.925 0.035 0
0.935 0.035 0
0.945 0.035 0
0.955 0.035 0
0.965 0.035 0
0.975 0.035 0
0.985 0.035 0
0.995 0.035 0
1.005 0.035 0
1.015 0.035 0
1.025 0.035 0
1.035 0.035 0
1.045 0.035 0
[...]
POINT_DATA 20000
VECTORS velocity float
0.986262 -2.90577e-05 0
0.973769 -6.73096e-05 0
0.962264 -0.000113233 0
0.951537 -0.000166285 0
0.941422 -0.000224523 0
0.931791 -0.000288253 0
0.922548 -0.000354904 0
0.913627 -0.00042584 0
0.904986 -0.000497616 0
0.896603 -0.000572891 0
0.888472 -0.000647077 0
0.880601 -0.000724385 0
0.873008 -0.000798809 0
0.865717 -0.000876371 0
0.858757 -0.000949388 0
0.852161 -0.00102592 0
0.84596 -0.00109639 0
0.840188 -0.00117104 0
0.834875 -0.00123827 0
0.830047 -0.00131057 0
0.825731 -0.00137424 0
0.821947 -0.00144398 0
0.818713 -0.00150401 0
0.81604 -0.00157114 0
0.813941 -0.00162759 0
0.812419 -0.00169206 0
0.811479 -0.00174496 0
0.81112 -0.00180661 0
0.81134 -0.00185588 0
0.812133 -0.00191434 0
0.813492 -0.00195961 0
0.81541 -0.00201423 0
0.817874 -0.00205483 0
0.820875 -0.00210459 0
0.824398 -0.0021395 0
0.828431 -0.00218303 0
0.832959 -0.00221088 0
0.837967 -0.00224652 0
0.843439 -0.00226563 0
0.849357 -0.00229145 0
0.855705 -0.00229996 0
0.862464 -0.00231393 0
0.869616 -0.00230989 0
0.877141 -0.00230997 0
0.885019 -0.00229153 0
0.89323 -0.00227587 0
0.90175 -0.00224143 0
0.910559 -0.00220854 0
0.919633 -0.00215689 0
0.928949 -0.00210578 0
0.938481 -0.0020363 0
0.948205 -0.00196658 0
0.958096 -0.00187929 0
0.968127 -0.0017913 0
0.978273 -0.00168697 0
0.988507 -0.00158178 0
0.998801 -0.00146188 0
1.00913 -0.00134128 0
1.01947 -0.00120799 0
1.02978 -0.00107441 0
1.04005 -0.00093048 0
1.05024 -0.000786872 0
1.06034 -0.000635538 0
1.07031 -0.000485245 0
1.08013 -0.000330034 0
1.08978 -0.000176617 0
1.09922 -2.12008e-05 0
1.10845 0.000131726 0
1.11742 0.000283699 0
1.12613 0.000432627 0
1.13456 0.000577689 0
1.14267 0.000719362 0
1.15046 0.000854362 0
1.1579 0.000985905 0
1.16498 0.00110812 0
1.17169 0.00122714 0
1.178 0.00133439 0
1.18392 0.00143904 0
1.18941 0.00152971 0
1.19448 0.00161877 0
1.19912 0.00169189 0
1.20332 0.00176474 0
1.20707 0.00181999 0
1.21037 0.00187665 0
1.21322 0.00191434 0
1.21563 0.00195541 0
1.21758 0.00197641 0
1.21909 0.00200303 0
1.22015 0.00200876 0
1.22079 0.00202251 0
1.22101 0.00201481 0
1.22081 0.00201761 0
1.22021 0.00199864 0
1.21923 0.00199264 0
1.21787 0.00196475 0
1.21616 0.00195217 0
1.21412 0.00191776 0
1.21176 0.00190081 0
1.2091 0.00186223 0
1.20616 0.00184294 0
1.20296 0.00180236 0
1.19953 0.00178251 0
1.19588 0.00174181 0
1.19203 0.00172285 0
1.18799 0.00168358 0
1.18381 0.0016666 0
1.17947 0.00162994 0
1.17502 0.00161561 0
1.17046 0.00158236 0
1.16581 0.001571 0
1.16108 0.00154158 0
1.15629 0.00153317 0
1.15145 0.00150768 0
1.14657 0.00150191 0
1.14166 0.00148016 0
1.13674 0.0014765 0
1.13181 0.00145808 0
1.12687 0.00145585 0
1.12195 0.00144018 0
1.11704 0.00143862 0
1.11215 0.00142499 0
1.10728 0.00142329 0
1.10245 0.00141095 0
1.09764 0.00140834 0
1.09288 0.00139652 0
1.08816 0.00139227 0
1.08349 0.00138022 0
1.07886 0.0013737 0
1.07429 0.00136072 0
1.06977 0.00135144 0
1.06531 0.00133691 0
1.0609 0.0013245 0
1.05656 0.00130788 0
1.05229 0.00129211 0
1.04807 0.001273 0
1.04393 0.00125377 0
1.03986 0.00123188 0
1.03586 0.00120922 0
1.03193 0.00118439 0
1.02808 0.00115846 0
1.02431 0.00113062 0
1.02061 0.00110167 0
1.01699 0.00107092 0
1.01346 0.00103929 0
1.01 0.00100579 0
1.00662 0.000971876 0
1.00333 0.000935911 0
1.00012 0.000900167 0
0.996992 0.000862099 0
0.993946 0.000824987 0
0.990982 0.000785247 0
0.988099 0.00074724 0
0.985298 0.000706307 0
0.982576 0.000667868 0
0.979933 0.000626255 0
0.977367 0.000587823 0
0.974878 0.00054606 0
0.972463 0.000508039 0
0.970121 0.000466658 0
0.967849 0.00042941 0
0.965646 0.000388928 0
0.963509 0.00035277 0
0.961437 0.000313679 0
0.959426 0.00027888 0
0.957476 0.000241639 0
0.955582 0.000208416 0
0.953743 0.000173443 0
0.951956 0.000141967 0
0.95022 0.000109632 0
0.94853 8.0032e-05 0
0.946887 5.06544e-05 0
0.945286 2.30165e-05 0
0.943728 -3.13602e-06 0
0.942209 -2.87617e-05 0
0.940728 -5.14756e-05 0
0.939283 -7.50721e-05 0
0.937875 -9.41883e-05 0
0.936501 -0.000115768 0
0.935161 -0.000131182 0
0.933854 -0.000150785 0
0.932581 -0.000162448 0
0.931342 -0.000180138 0
0.930138 -0.000188055 0
0.928968 -0.00020392 0
0.927835 -0.000208152 0
0.926738 -0.000222302 0
0.925681 -0.000222964 0
0.924664 -0.000235528 0
0.92369 -0.000232797 0
0.92276 -0.000243917 0
0.921876 -0.000238057 0
0.92104 -0.000247868 0
0.920255 -0.000239304 0
0.919522 -0.000247897 0
0.918842 -0.000237402 0
0.918219 -0.000244727 0
0.917654 -0.000233825 0
0.917152 -0.00023947 0
0.91673 -0.000231176 0
0.916436 -0.00023381 0
0.986242 -8.7193e-05 0
0.973732 -0.000201546 0
0.962211 -0.000339763 0
0.951472 -0.000497889 0
0.941346 -0.000673691 0
0.931705 -0.000863029 0
0.922455 -0.00106494 0
0.913528 -0.00127486 0
0.904882 -0.00149328 0
0.896496 -0.00171493 0
0.888363 -0.001942 0
0.880491 -0.00216821 0
0.872897 -0.0023977 0
0.865606 -0.0026229 0
0.858647 -0.00285012 0
0.852052 -0.00307026 0
0.845852 -0.00329197 0
0.840081 -0.0035044 0
0.834769 -0.00371863 0
0.829944 -0.0039219 0
0.825629 -0.00412767 0
0.821847 -0.00432122 0
0.818613 -0.00451824 0
0.815943 -0.00470201 0
0.813844 -0.00489025 0
0.812324 -0.00506434 0
0.811385 -0.00524368 0
0.811028 -0.00540788 0
0.811248 -0.0055777 0
0.812044 -0.00573122 0
0.813405 -0.00589014 0
0.815325 -0.00603128 0
0.817792 -0.00617696 0
0.820796 -0.00630299 0
0.824323 -0.006432 0
0.828361 -0.00653915 0
0.832894 -0.00664703 0
0.837908 -0.00673053 0
0.843386 -0.00681198 0
0.849312 -0.0068663 0
0.855669 -0.00691543 0
0.862437 -0.00693466 0
0.8696 -0.00694537 0
0.877136 -0.00692361 0
0.885025 -0.00689012 0
0.893248 -0.006822 0
0.901781 -0.00673929 0
0.910602 -0.00662045 0
0.919689 -0.00648478 0
0.929017 -0.00631236 0
0.938563 -0.00612171 0
0.948299 -0.00589473 0
0.958202 -0.00564908 0
0.968245 -0.00536866 0
0.978401 -0.00507021 0
0.988644 -0.0047397 0
0.998947 -0.00439282 0
1.00928 -0.00401773 0
1.01962 -0.00362888 0
1.02994 -0.00321664 0
1.04021 -0.00279405 0
1.05041 -0.00235367 0
1.06051 -0.00190695 0
1.07047 -0.00144862 0
1.08029 -0.000988272 0
1.08993 -0.00052284 0
1.09937 -5.97817e-05 0
1.10858 0.000401758 0
1.11755 0.000856692 0
1.12624 0.00130366 0
1.13465 0.0017402 0
1.14275 0.00216268 0
1.15052 0.00257151 0
1.15794 0.00296076 0
1.16501 0.00333388 0
1.17169 0.00368257 0
1.17798 0.00401356 0
1.18387 0.00431607 0
1.18934 0.00460028 0
1.19439 0.00485284 0
1.19901 0.00508749 0
1.20318 0.00528821 0
1.20691 0.00547242 0
1.21019 0.00562135 0
1.21302 0.00575608 0
1.2154 0.00585505 0
1.21733 0.00594298 0
1.21882 0.00599548 0
1.21986 0.0060408 0
1.22048 0.00605171 0
1.22068 0.00605978 0
1.22046 0.00603506 0
1.21985 0.00601217 0
1.21885 0.00595851 0
1.21749 0.00591141 0
1.21577 0.00583583 0
1.21371 0.00577138 0
1.21134 0.00568085 0
1.20867 0.00560564 0
1.20573 0.00550672 0
1.20253 0.00542673 0
1.19909 0.00532526 0
1.19543 0.00524561 0
1.19158 0.00514646 0
1.18754 0.00507123 0
1.18335 0.0049782 0
1.17902 0.0049103 0
1.17457 0.00482603 0
1.17001 0.00476723 0
1.16536 0.00469324 0
1.16063 0.00464423 0
1.15585 0.004581 0
1.15101 0.00454154 0
1.14613 0.00448865 0
1.14123 0.0044577 0
1.13631 0.00441401 0
1.13139 0.00438992 0
1.12646 0.00435374 0
1.12154 0.00433448 0
1.11663 0.00430375 0
1.11175 0.00428702 0
1.10689 0.00425949 0
1.10206 0.00424296 0
1.09726 0.0042163 0
1.09251 0.0041977 0
1.08779 0.00416966 0
1.08312 0.00414689 0
1.07851 0.0041154 0
1.07394 0.00408663 0
1.06943 0.00404988 0
1.06497 0.00401362 0
1.06058 0.00397008 0
1.05624 0.00392522 0
1.05197 0.00387372 0
1.04777 0.00381952 0
1.04363 0.00375927 0
1.03957 0.00369538 0
1.03558 0.00362597 0
1.03166 0.00355241 0
1.02781 0.00347376 0
1.02405 0.00339092 0
1.02036 0.00330332 0
1.01675 0.00321184 0
1.01322 0.00311589 0
1.00977 0.00301672 0
1.0064 0.00291327 0
1.00311 0.00280753 0
0.999911 0.00269767 0
0.996789 0.00258664 0
0.993751 0.00247164 0
0.990794 0.00235668 0
0.987919 0.00223793 0
0.985123 0.00212047 0
0.982409 0.00199943 0
0.979772 0.00188088 0
0.977214 0.00175901 0
0.97473 0.00164075 0
0.972322 0.00151954 0
0.969985 0.00140286 0
0.96772 0.00128372 0
0.965522 0.00116982 0
0.963392 0.00105407 0
0.961325 0.000944025 0
0.95932 0.000832885 0
0.957374 0.000727639 0
0.955486 0.000622204 0
0.953652 0.000522561 0
0.951871 0.000423791 0
0.950138 0.000330418 0
0.948454 0.000239128 0
0.946814 0.000152558 0
0.945219 6.94216e-05 0
0.943664 -9.94427e-06 0
0.94215 -8.43976e-05 0
0.940672 -0.00015628 0
0.939233 -0.000221662 0
0.937827 -0.000285898 0
0.936458 -0.000341959 0
0.935121 -0.000398498 0
0.933819 -0.000445124 0
0.932548 -0.000494022 0
0.931314 -0.000531235 0
0.930111 -0.00057265 0
0.928946 -0.000600605 0
0.927814 -0.000634794 0
0.926722 -0.000653777 0
0.925667 -0.000681097 0
0.924653 -0.000691526 0
0.923681 -0.000712425 0
0.922754 -0.000714873 0
0.921872 -0.000729897 0
0.921039 -0.000725159 0
0.920255 -0.000734975 0
0.919524 -0.000724268 0
0.918846 -0.000729724 0
0.918225 -0.000715156 0
0.91766 -0.000717396 0
0.917161 -0.000702854 0
0.916739 -0.000703361 0
0.916447 -0.000695825 0
0.986202 -0.00014502 0
0.973657 -0.000335482 0
0.962106 -0.000565058 0
0.951341 -0.000828705 0
0.941193 -0.00112034 0
0.931534 -0.00143641 0
0.92227 -0.00177087 0
0.913331 -0.00212184 0
0.904676 -0.00248301 0
0.896283 -0.00285437 0
0.888146 -0.00322903 0
0.88027 -0.00360906 0
0.872676 -0.00398672 0
0.865384 -0.00436636 0
0.858426 -0.0047391 0
0.851832 -0.00511179 0
0.845636 -0.00547415 0
0.839867 -0.00583561 0
0.834559 -0.00618427 0
0.829735 -0.00653213 0
0.825425 -0.00686551 0
0.821644 -0.00719882 0
0.818415 -0.00751649 0
0.815746 -0.00783509 0
0.81365 -0.00813713 0
0.812132 -0.008441 0
0.811197 -0.00872735 0
0.810841 -0.00901598 0
0.811066 -0.00928579 0
0.811863 -0.0095576 0
0.81323 -0.00980874 0
0.815153 -0.0100607 0
0.817627 -0.0102894 0
0.820637 -0.0105166 0
0.824172 -0.0107173 0
0.828219 -0.0109132 0
0.832763 -0.0110786 0
0.837789 -0.011235 0
0.843281 -0.0113564 0
0.849222 -0.0114637 0
0.855596 -0.0115313 0
0.862383 -0.0115795 0
0.869566 -0.0115832 0
0.877123 -0.0115622 0
0.885036 -0.0114924 0
0.893282 -0.0113931 0
0.90184 -0.0112414 0
0.910688 -0.0110563 0
0.9198 -0.0108167 0
0.929155 -0.0105409 0
0.938725 -0.01021 0
0.948487 -0.00984191 0
0.958413 -0.00941982 0
0.968479 -0.00896127 0
0.978656 -0.00845182 0
0.988918 -0.00790841 0
0.999237 -0.0073191 0
1.00959 -0.00670008 0
1.01994 -0.00604188 0
1.03027 -0.00535971 0
1.04054 -0.00464656 0
1.05074 -0.00391635 0
1.06083 -0.00316447 0
1.0708 -0.00240325 0
1.0806 -0.00163038 0
1.09023 -0.000856255 0
1.09965 -8.07767e-05 0
1.10884 0.000687926 0
1.11778 0.0014478 0
1.12646 0.00219333 0
1.13483 0.00292035 0
1.1429 0.00362627 0
1.15063 0.00430484 0
1.15802 0.00495666 0
1.16504 0.00557339 0
1.17169 0.00615909 0
1.17793 0.00670325 0
1.18378 0.00721363 0
1.18921 0.00767748 0
1.19421 0.00810642 0
1.19877 0.00848537 0
1.2029 0.00882992 0
1.20658 0.00912257 0
1.20982 0.00938293 0
1.2126 0.00959099 0
1.21494 0.00977034 0
1.21682 0.0098984 0
1.21827 0.0100026 0
1.21928 0.0100578 0
1.21986 0.0100949 0
1.22002 0.0100863 0
1.21977 0.0100664 0
1.21912 0.0100046 0
1.2181 0.00993844 0
1.21671 0.00983497 0
1.21496 0.00973414 0
1.21289 0.00960064 0
1.2105 0.00947643 0
1.20782 0.00932411 0
1.20486 0.00918709 0
1.20164 0.00902621 0
1.1982 0.0088857 0
1.19453 0.00872507 0
1.19067 0.00858877 0
1.18664 0.0084355 0
1.18245 0.00830927 0
1.17812 0.00816856 0
1.17367 0.00805637 0
1.16911 0.00793152 0
1.16446 0.00783544 0
1.15974 0.00772796 0
1.15496 0.00764841 0
1.15013 0.00755821 0
1.14526 0.00749414 0
1.14037 0.0074198 0
1.13546 0.007369 0
1.13054 0.00730805 0
1.12563 0.00726747 0
1.12072 0.00721672 0
1.11582 0.00718278 0
1.11095 0.00713857 0
1.1061 0.00710743 0
1.10128 0.00706592 0
1.0965 0.00703372 0
1.09176 0.00699111 0
1.08706 0.0069542 0
1.0824 0.00690692 0
1.07779 0.006862 0
1.07324 0.00680685 0
1.06874 0.00675111 0
1.0643 0.00668538 0
1.05992 0.00661659 0
1.0556 0.00653812 0
1.05134 0.00645468 0
1.04716 0.00636193 0
1.04304 0.00626285 0
1.03899 0.00615491 0
1.03501 0.00603986 0
1.0311 0.00591642 0
1.02727 0.00578564 0
1.02352 0.00564698 0
1.01985 0.00550129 0
1.01625 0.00534823 0
1.01274 0.00518887 0
1.00931 0.0050227 0
1.00595 0.00485136 0
1.00268 0.00467376 0
0.999492 0.00449241 0
0.996386 0.00430537 0
0.993361 0.0041162 0
0.990419 0.00392196 0
0.987556 0.0037273 0
0.984777 0.00352822 0
0.982074 0.00333044 0
0.979452 0.00312896 0
0.976905 0.00293042 0
0.974436 0.00272897 0
0.972039 0.00253193 0
0.969716 0.00233285 0
0.967461 0.00213945 0
0.965277 0.00194497 0
0.963156 0.00175716 0
0.961102 0.00156933 0
0.959107 0.00138886 0
0.957173 0.00120954 0
0.955294 0.00103792 0
0.953471 0.000868733 0
0.951698 0.000707275 0
0.949977 0.000549625 0
0.9483 0.000399389 0
0.946672 0.000254441 0
0.945084 0.00011627 0
0.943539 -1.50457e-05 0
0.942031 -0.000140524 0
0.940564 -0.000257508 0
0.93913 -0.000369875 0
0.937735 -0.00047205 0
0.93637 -0.000571083 0
0.935043 -0.000658195 0
0.933746 -0.00074386 0
0.932485 -0.000815869 0
0.931254 -0.000888318 0
0.930061 -0.000945398 0
0.928899 -0.00100496 0
0.927776 -0.00104749 0
0.926687 -0.00109467 0
0.92564 -0.00112324 0
0.92463 -0.00115871 0
0.923664 -0.00117413 0
0.92274 -0.00119875 0
0.921864 -0.00120207 0
0.921034 -0.0012169 0
0.920256 -0.00120966 0
0.919527 -0.00121609 0
0.918854 -0.00120066 0
0.918235 -0.00120071 0
0.917675 -0.00118126 0
0.917177 -0.00117798 0
0.916759 -0.001162 0
0.916467 -0.00115972 0
0.986142 -0.000202576 0
0.973545 -0.000468355 0
0.961949 -0.000789238 0
0.951145 -0.00115681 0
0.940965 -0.00156469 0
0.93128 -0.00200495 0
0.921992 -0.00247311 0
0.913036 -0.00296148 0
0.904367 -0.00346763 0
0.895965 -0.00398376 0
0.887819 -0.00450966 0
0.879941 -0.00503711 0
0.872343 -0.00556834 0
0.865053 -0.0060944 0
0.858094 -0.00662014 0
0.851504 -0.00713562 0
0.84531 -0.00764842 0
0.839547 -0.00814733 0
0.834241 -0.00864268 0
0.829424 -0.00912175 0
0.825115 -0.00959748 0
0.821342 -0.0100554 0
0.818114 -0.0105109 0
0.815451 -0.0109477 0
0.813357 -0.0113829 0
0.811844 -0.0117985 0
0.810911 -0.0122133 0
0.810561 -0.0126071 0
0.810788 -0.013 0
0.811592 -0.01337 0
0.812963 -0.0137377 0
0.814895 -0.0140796 0
0.817375 -0.0144166 0
0.820396 -0.0147239 0
0.823942 -0.015022 0
0.828003 -0.0152853 0
0.832563 -0.0155341 0
0.837607 -0.0157419 0
0.84312 -0.0159287 0
0.849084 -0.0160677 0
0.855483 -0.0161784 0
0.862299 -0.0162344 0
0.869512 -0.0162545 0
0.877102 -0.0162133 0
0.885049 -0.0161292 0
0.893332 -0.0159778 0
0.901928 -0.0157775 0
0.910813 -0.0155057 0
0.919965 -0.0151804 0
0.929357 -0.0147814 0
0.938966 -0.0143265 0
0.948765 -0.0137979 0
0.958728 -0.0132136 0
0.968826 -0.0125584 0
0.979035 -0.01185 0
0.989324 -0.0110763 0
0.999669 -0.0102547 0
1.01004 -0.00937571 0
1.02041 -0.00845639 0
1.03075 -0.00749003 0
1.04103 -0.00649278 0
1.05123 -0.00546057 0
1.06132 -0.00440834 0
1.07127 -0.00333449 0
1.08106 -0.00225229 0
1.09067 -0.00116246 0
1.10006 -7.618e-05 0
1.10923 0.0010037 0
1.11813 0.00206852 0
1.12676 0.00311341 0
1.1351 0.00413266 0
1.14311 0.00511944 0
1.15079 0.00607136 0
1.15812 0.00697972 0
1.16509 0.00784576 0
1.17166 0.0086589 0
1.17785 0.00942429 0
1.18362 0.0101294 0
1.18898 0.0107836 0
1.19391 0.0113723 0
1.19841 0.0119091 0
1.20247 0.0123775 0
1.20608 0.0127953 0
1.20924 0.0131438 0
1.21196 0.0134452 0
1.21423 0.0136786 0
1.21605 0.0138702 0
1.21743 0.0139968 0
1.21839 0.0140888 0
1.21891 0.0141202 0
1.21902 0.0141253 0
1.21872 0.0140755 0
1.21803 0.0140085 0
1.21696 0.0138932 0
1.21553 0.01377 0
1.21375 0.0136054 0
1.21164 0.013442 0
1.20923 0.013244 0
1.20652 0.0130558 0
1.20354 0.0128395 0
1.20031 0.0126404 0
1.19685 0.0124189 0
1.19318 0.0122208 0
1.18931 0.0120052 0
1.18527 0.0118175 0
1.18108 0.0116163 0
1.17675 0.0114458 0
1.1723 0.0112647 0
1.16775 0.0111156 0
1.16311 0.0109577 0
1.1584 0.0108318 0
1.15363 0.010698 0
1.14881 0.0105947 0
1.14395 0.0104839 0
1.13907 0.0104009 0
1.13418 0.0103101 0
1.12927 0.0102438 0
1.12437 0.0101691 0
1.11948 0.0101147 0
1.1146 0.0100512 0
1.10975 0.0100036 0
1.10492 0.00994603 0
1.10011 0.00989982 0
1.09535 0.00984288 0
1.09063 0.00979282 0
1.08595 0.00973134 0
1.08131 0.00967256 0
1.07672 0.00960184 0
1.07219 0.00953007 0
1.06771 0.00944603 0
1.06329 0.00935773 0
1.05893 0.00925703 0
1.05463 0.00914949 0
1.0504 0.00902962 0
1.04623 0.00890101 0
1.04214 0.00876031 0
1.03811 0.00860969 0
1.03415 0.00844739 0
1.03027 0.00827466 0
1.02647 0.00809081 0
1.02274 0.00789669 0
1.01909 0.00769213 0
1.01551 0.00747802 0
1.01202 0.00725428 0
1.00861 0.00702224 0
1.00528 0.00678144 0
1.00203 0.00653398 0
0.998865 0.00627874 0
0.995778 0.00601877 0
0.992777 0.00575206 0
0.989854 0.00548276 0
0.987015 0.0052078 0
0.984253 0.00493245 0
0.981574 0.00465262 0
0.978969 0.00437454 0
0.976445 0.00409321 0
0.973992 0.00381566 0
0.971616 0.00353614 0
0.969309 0.00326222 0
0.967075 0.00298768 0
0.964906 0.00272029 0
0.962806 0.00245367 0
0.960765 0.00219541 0
0.958789 0.0019394 0
0.956868 0.00169261 0
0.955008 0.00144959 0
0.953197 0.00121626 0
0.951442 0.000988307 0
0.949732 0.000770141 0
0.948073 0.000558987 0
0.946455 0.000357345 0
0.944883 0.000164409 0
0.943348 -1.96502e-05 0
0.941857 -0.000193275 0
0.940398 -0.000358991 0
0.93898 -0.000512523 0
0.937592 -0.000659421 0
0.936243 -0.000792386 0
0.934923 -0.000920268 0
0.93364 -0.00103249 0
0.932386 -0.00114142 0
0.931169 -0.00123301 0
0.929982 -0.00132332 0
0.928833 -0.00139468 0
0.927715 -0.00146694 0
0.926638 -0.00151876 0
0.925596 -0.0015738 0
0.924597 -0.00160704 0
0.923636 -0.00164593 0
0.922723 -0.00166187 0
0.921851 -0.00168596 0
0.92103 -0.00168634 0
0.920255 -0.00169737 0
0.919535 -0.00168468 0
0.918864 -0.00168512 0
0.918252 -0.0016635 0
0.917695 -0.00165713 0
0.917203 -0.00163389 0
0.916786 -0.00162667 0
0.916499 -0.00161433 0
0.986063 -0.000259535 0
0.973396 -0.000600235 0
0.961741 -0.00101101 0
0.950885 -0.00148236 0
0.940662 -0.00200412 0
0.93094 -0.00256893 0
0.921624 -0.00316736 0
0.912643 -0.00379435 0
0.903958 -0.00444084 0
0.89554 -0.00510416 0
0.887387 -0.00577532 0
0.879501 -0.00645421 0
0.871902 -0.00713155 0
0.864609 -0.00781 0
0.857655 -0.00847971 0
0.851065 -0.00914621 0
0.844878 -0.00979876 0
0.839117 -0.0104458 0
0.833819 -0.0110755 0
0.829005 -0.0116991 0
0.824705 -0.0123032 0
0.820933 -0.0129017 0
0.817714 -0.0134796 0
0.815053 -0.0140528 0
0.812966 -0.0146045 0
0.811455 -0.0151525 0
0.810529 -0.0156778 0
0.810181 -0.0161994 0
0.810416 -0.0166966 0
0.811225 -0.017189 0
0.812604 -0.0176539 0
0.814544 -0.0181113 0
0.817036 -0.0185368 0
0.820069 -0.0189502 0
0.823632 -0.0193257 0
0.82771 -0.0196828 0
0.832291 -0.0199947 0
0.837359 -0.0202802 0
0.842899 -0.020512 0
0.848895 -0.0207083 0
0.855328 -0.0208417 0
0.862181 -0.0209299 0
0.869435 -0.0209461 0
0.877069 -0.0209076 0
0.885062 -0.0207886 0
0.893393 -0.0206064 0
0.902038 -0.0203369 0
0.910975 -0.0199973 0
0.920178 -0.0195659 0
0.929623 -0.0190601 0
0.939283 -0.0184609 0
0.949132 -0.0177861 0
0.959141 -0.0170196 0
0.969285 -0.0161797 0
0.979534 -0.0152533 0
0.989862 -0.014259 0
1.00024 -0.013187 0
1.01063 -0.0120558 0
1.02102 -0.0108588 0
1.03138 -0.00961412 0
1.04167 -0.00831816 0
1.05187 -0.00698825 0
1.06195 -0.00562345 0
1.07189 -0.00423983 0
1.08166 -0.0028389 0
1.09124 -0.00143489 0
1.1006 -3.1539e-05 0
1.10972 0.00135931 0
1.11858 0.0027319 0
1.12715 0.00407731 0
1.13542 0.00538795 0
1.14337 0.00665825 0
1.15098 0.00787894 0
1.15824 0.00904821 0
1.16512 0.0101552 0
1.17161 0.0112021 0
1.17771 0.0121765 0
1.18339 0.0130851 0
1.18866 0.0139137 0
1.1935 0.0146735 0
1.1979 0.0153487 0
1.20186 0.0159552 0
1.20538 0.0164752 0
1.20845 0.0169295 0
1.21108 0.0172981 0
1.21326 0.0176066 0
1.21499 0.0178327 0
1.2163 0.0180065 0
1.21717 0.0181034 0
1.21762 0.0181575 0
1.21765 0.0181421 0
1.21729 0.0180946 0
1.21654 0.017986 0
1.21541 0.0178568 0
1.21393 0.0176756 0
1.21211 0.0174854 0
1.20996 0.0172523 0
1.20751 0.0170213 0
1.20477 0.0167562 0
1.20177 0.0165032 0
1.19851 0.016224 0
1.19504 0.0159655 0
1.19135 0.0156876 0
1.18748 0.0154371 0
1.18343 0.0151728 0
1.17924 0.0149407 0
1.17491 0.0146989 0
1.17047 0.0144919 0
1.16592 0.0142781 0
1.16129 0.0141 0
1.15659 0.0139166 0
1.15184 0.013768 0
1.14703 0.0136146 0
1.14219 0.0134936 0
1.13733 0.0133675 0