# vtk DataFile Version 3.0
Flow field at step 350
ASCII
DATASET STRUCTURED_GRID
DIMENSIONS 200 100 1
POINTS 20000 float
0.005 0.005 0
0.015 0.005 0
0.025 0.005 0
0.035 0.005 0
0.045 0.005 0
0.055 0.005 0
0.065 0.005 0
0.075 0.005 0
0.085 0.005 0
0.095 0.005 0
0.105 0.005 0
0.115 0.005 0
0.125 0.005 0
0.135 0.005 0
0.145 0.005 0
0.155 0.005 0
0.165 0.005 0
0.175 0.005 0
0.185 0.005 0
0.195 0.005 0
0.205 0.005 0
0.215 0.005 0
0.225 0.005 0
0.235 0.005 0
0.245 0.005 0
0.255 0.005 0
0.265 0.005 0
0.275 0.005 0
0.285 0.005 0
0.295 0.005 0
0.305 0.005 0
0.315 0.005 0
0.325 0.005 0
0.335 0.005 0
0.345 0.005 0
0.355 0.005 0
0.365 0.005 0
0.375 0.005 0
0.385 0.005 0
0.395 0.005 0
0.405 0.005 0
0.415 0.005 0
0.425 0.005 0
0.435 0.005 0
0.445 0.005 0
0.455 0.005 0
0.465 0.005 0
0.475 0.005 0
0.485 0.005 0
0.495 0.005 0
0.505 0.005 0
0.515 0.005 0
0.525 0.005 0
0.535 0.005 0
0.545 0.005 0
0.555 0.005 0
0.565 0.005 0
0.575 0.005 0
0.585 0.005 0
0.595 0.005 0
0.605 0.005 0
0.615 0.005 0
0.625 0.005 0
0.635 0.005 0
0.645 0.005 0
0.655 0.005 0
0.665 0.005 0
0.675 0.005 0
0.685 0.005 0
0.695 0.005 0
0.705 0.005 0
0.715 0.005 0
0.725 0.005 0
0.735 0.005 0
0.745 0.005 0
0.755 0.005 0
0.765 0.005 0
0.775 0.005 0
0.785 0.005 0
0.795 0.005 0
0.805 0.005 0
0.815 0.005 0
0.825 0.005 0
0.835 0.005 0
0.845 0.005 0
0.855 0.005 0
0.865 0.005 0
0.875 0.005 0
0.885 0.005 0
0.895 0.005 0
0.905 0.005 0
0.915 0.005 0
0.925 0.005 0
0.935 0.005 0
0.945 0.005 0
0.955 0.005 0
0.965 0.005 0
0.975 0.005 0
0.985 0.005 0
0.995 0.005 0
1.005 0.005 0
1.015 0.005 0
1.025 0.005 0
1.035 0.005 0
1.045 0.005 0
1.055 0.005 0
1.065 0.005 0
1.075 0.005 0
1.085 0.005 0
1.095 0.005 0
1.105 0.005 0
1.115 0.005 0
1.125 0.005 0
1.135 0.005 0
1.145 0.005 0
1.155 0.005 0
1.165 0.005 0
1.175 0.005 0
1.185 0.005 0
1.195 0.005 0
1.205 0.005 0
1.215 0.005 0
1.225 0.005 0
1.235 0.005 0
1.245 0.005 0
1.255 0.005 0
1.265 0.005 0
1.275 0.005 0
1.285 0.005 0
1.295 0.005 0
1.305 0.005 0
1.315 0.005 0
1.325 0.005 0
1.335 0.005 0
1.345 0.005 0
1.355 0.005 0
1.365 0.005 0
1.375 0.005 0
1.385 0.005 0
1.395 0.005 0
1.405 0.005 0
1.415 0.005 0
1.425 0.005 0
1.435 0.005 0
1.445 0.005 0
1.455 0.005 0
1.465 0.005 0
1.475 0.005 0
1.485 0.005 0
1.495 0.005 0
1.505 0.005 0
1.515 0.005 0
1.525 0.005 0
1.535 0.005 0
1.545 0.005 0
1.555 0.005 0
1.565 0.005 0
1.575 0.005 0
1.585 0.005 0
1.595 0.005 0
1.605 0.005 0
1.615 0.005 0
1.625 0.005 0
1.635 0.005 0
1.645 0.005 0
1.655 0.005 0
1.665 0.005 0
1.675 0.005 0
1.685 0.005 0
1.695 0.005 0
1.705 0.005 0
1.715 0.005 0
1.725 0.005 0
1.735 0.005 0
1.745 0.005 0
1.755 0.005 0
1.765 0.005 0
1.775 0.005 0
1.785 0.005 0
1.795 0.005 0
1.805 0.005 0
1.815 0.005 0
1.825 0.005 0
1.835 0.005 0
1.845 0.005 0
1.855 0.005 0
1.865 0.005 0
1.875 0.005 0
1.885 0.005 0
1.895 0.005 0
1.905 0.005 0
1.915 0.005 0
1.925 0.005 0
1.935 0.005 0
1.945 0.005 0
1.955 0.005 0
1.965 0.005 0
1.975 0.005 0
1.985 0.005 0
1.995 0.005 0
0.005 0.015 0
0.015 0.015 0
0.025 0.015 0
0.035 0.015 0
0.045 0.015 0
0.055 0.015 0
0.065 0.015 0
0.075 0.015 0
0.085 0.015 0
0.095 0.015 0
0.105 0.015 0
0.115 0.015 0
0.125 0.015 0
0.135 0.015 0
0.145 0.015 0
0.155 0.015 0
0.165 0.015 0
0.175 0.015 0
0.185 0.015 0
0.195 0.015 0
0.205 0.015 0
0.215 0.015 0
0.225 0.015 0
0.235 0.015 0
0.245 0.015 0
0.255 0.015 0
0.265 0.015 0
0.275 0.015 0
0.285 0.015 0
0.295 0.015 0
0.305 0.015 0
0.315 0.015 0
0.325 0.015 0
0.335 0.015 0
0.345 0.015 0
0.355 0.015 0
0.365 0.015 0
0.375 0.015 0
0.385 0.015 0
0.395 0.015 0
0.405 0.015 0
0.415 0.015 0
0.425 0.015 0
0.435 0.015 0
0.445 0.015 0
0.455 0.015 0
0.465 0.015 0
0.475 0.015 0
0.485 0.015 0
0.495 0.015 0
0.505 0.015 0
0.515 0.015 0
0.525 0.015 0
0.535 0.015 0
0.545 0.015 0
0.555 0.015 0
0.565 0.015 0
0.575 0.015 0
0.585 0.015 0
0.595 0.015 0
0.605 0.015 0
0.615 0.015 0
0.625 0.015 0
0.635 0.015 0
0.645 0.015 0
0.655 0.015 0
0.665 0.015 0
0.675 0.015 0
0.685 0.015 0
0.695 0.015 0
0.705 0.015 0
0.715 0.015 0
0.725 0.015 0
0.735 0.015 0
0.745 0.015 0
0.755 0.015 0
0.765 0.015 0
0.775 0.015 0
0.785 0.015 0
0.795 0.015 0
0.805 0.015 0
0.815 0.015 0
0.825 0.015 0
0.835 0.015 0
0.845 0.015 0
0.855 0.015 0
0.865 0.015 0
0.875 0.015 0
0.885 0.015 0
0.895 0.015 0
0.905 0.015 0
0.915 0.015 0
0.925 0.015 0
0.935 0.015 0
0.945 0.015 0
0.955 0.015 0
0.965 0.015 0
0.975 0.015 0
0.985 0.015 0
0.995 0.015 0
1.005 0.015 0
1.015 0.015 0
1.025 0.015 0
1.035 0.015 0
1.045 0.015 0
1.055 0.015 0
1.065 0.015 0
1.075 0.015 0
1.085 0.015 0
1.095 0.015 0
1.105 0.015 0
1.115 0.015 0
1.125 0.015 0
1.135 0.015 0
1.145 0.015 0
1.155 0.015 0
1.165 0.015 0
1.175 0.015 0
1.185 0.015 0
1.195 0.015 0
1.205 0.015 0
1.215 0.015 0
1.225 0.015 0
1.235 0.015 0
1.245 0.015 0
1.255 0.015 0
1.265 0.015 0
1.275 0.015 0
1.285 0.015 0
1.295 0.015 0
1.305 0.015 0
1.315 0.015 0
1.325 0.015 0
1.335 0.015 0
1.345 0.015 0
1.355 0.015 0
1.365 0.015 0
1.375 0.015 0
1.385 0.015 0
1.395 0.015 0
1.405 0.015 0
1.415 0.015 0
1.425 0.015 0
1.435 0.015 0
1.445 0.015 0
1.455 0.015 0
1.465 0.015 0
1.475 0.015 0
1.485 0.015 0
1.495 0.015 0
1.505 0.015 0
1.515 0.015 0
1.525 0.015 0
1.535 0.015 0
1.545 0.015 0
1.555 0.015 0
1.565 0.015 0
1.575 0.015 0
1.585 0.015 0
1.595 0.015 0
1.605 0.015 0
1.615 0.015 0
1.625 0.015 0
1.635 0.015 0
1.645 0.015 0
1.655 0.015 0
1.665 0.015 0
1.675 0.015 0
1.685 0.015 0
1.695 0.015 0
1.705 0.015 0
1.715 0.015 0
1.725 0.015 0
1.735 0.015 0
1.745 0.015 0
1.755 0.015 0
1.765 0.015 0
1.775 0.015 0
1.785 0.015 0
1.795 0.015 0
1.805 0.015 0
1.815 0.015 0
1.825 0.015 0
1.835 0.015 0
1.845 0.015 0
1.855 0.015 0
1.865 0.015 0
1.875 0.015 0
1.885 0.015 0
1.895 0.015 0
1.905 0.015 0
1.915 0.015 0
1.925 0.015 0
1.935 0.015 0
1.945 0.015 0
1.955 0.015 0
1.965 0.015 0
1.975 0.015 0
1.985 0.015 0
1.995 0.015 0
0.005 0.025 0
0.015 0.025 0
0.025 0.025 0
0.035 0.025 0
0.045 0.025 0
0.055 0.025 0
0.065 0.025 0
0.075 0.025 0
0.085 0.025 0
0.095 0.025 0
0.105 0.025 0
0.115 0.025 0
0.125 0.025 0
0.135 0.025 0
0.145 0.025 0
0.155 0.025 0
0.165 0.025 0
0.175 0.025 0
0.185 0.025 0
0.195 0.025 0
0.205 0.025 0
0.215 0.025 0
0.225 0.025 0
0.235 0.025 0
0.245 0.025 0
0.255 0.025 0
0.265 0.025 0
0.275 0.025 0
0.285 0.025 0
0.295 0.025 0
0.305 0.025 0
0.315 0.025 0
0.325 0.025 0
0.335 0.025 0
0.345 0.025 0
0.355 0.025 0
0.365 0.025 0
0.375 0.025 0
0.385 0.025 0
0.395 0.025 0
0.405 0.025 0
0.415 0.025 0
0.425 0.025 0
0.435 0.025 0
0.445 0.025 0
0.455 0.025 0
0.465 0.025 0
0.475 0.025 0
0.485 0.025 0
0.495 0.025 0
0.505 0.025 0
0.515 0.025 0
0.525 0.025 0
0.535 0.025 0
0.545 0.025 0
0.555 0.025 0
0.565 0.025 0
0.575 0.025 0
0.585 0.025 0
0.595 0.025 0
0.605 0.025 0
0.615 0.025 0
0.625 0.025 0
0.635 0.025 0
0.645 0.025 0
0.655 0.025 0
0.665 0.025 0
0.675 0.025 0
0.685 0.025 0
0.695 0.025 0
0.705 0.025 0
0.715 0.025 0
0.725 0.025 0
0.735 0.025 0
0.745 0.025 0
0.755 0.025 0
0.765 0.025 0
0.775 0.025 0
0.785 0.025 0
0.795 0.025 0
0.805 0.025 0
0.815 0.025 0
0.825 0.025 0
0.835 0.025 0
0.845 0.025 0
0.855 0.025 0
0.865 0.025 0
0.875 0.025 0
0.885 0.025 0
0.895 0.025 0
0.905 0.025 0
0.915 0.025 0
0.925 0.025 0
0.935 0.025 0
0.945 0.025 0
0.955 0.025 0
0.965 0.025 0
0.975 0.025 0
0.985 0.025 0
0.995 0.025 0
1.005 0.025 0
1.015 0.025 0
1.025 0.025 0
1.035 0.025 0
1.045 0.025 0
1.055 0.025 0
1.065 0.025 0
1.075 0.025 0
1.085 0.025 0
1.095 0.025 0
1.105 0.025 0
1.115 0.025 0
1.125 0.025 0
1.135 0.025 0
1.145 0.025 0
1.155 0.025 0
1.165 0.025 0
1.175 0.025 0
1.185 0.025 0
1.195 0.025 0
1.205 0.025 0
1.215 0.025 0
1.225 0.025 0
1.235 0.025 0
1.245 0.025 0
1.255 0.025 0
1.265 0.025 0
1.275 0.025 0
1.285 0.025 0
1.295 0.025 0
1.305 0.025 0
1.315 0.025 0
1.325 0.025 0
1.335 0.025 0
1.345 0.025 0
1.355 0.025 0
1.365 0.025 0
1.375 0.025 0
1.385 0.025 0
1.395 0.025 0
1.405 0.025 0
1.415 0.025 0
1.425 0.025 0
1.435 0.025 0
1.445 0.025 0
1.455 0.025 0
1.465 0.025 0
1.475 0.025 0
1.485 0.025 0
1.495 0.025 0
1.505 0.025 0
1.515 0.025 0
1.525 0.025 0
1.535 0.025 0
1.545 0.025 0
1.555 0.025 0
1.565 0.025 0
1.575 0.025 0
1.585 0.025 0
1.595 0.025 0
1.605 0.025 0
1.615 0.025 0
1.625 0.025 0
1.635 0.025 0
1.645 0.025 0
1.655 0.025 0
1.665 0.025 0
1.675 0.025 0
1.685 0.025 0
1.695 0.025 0
1.705 0.025 0
1.715 0.025 0
1.725 0.025 0
1.735 0.025 0
1.745 0.025 0
1.755 0.025 0
1.765 0.025 0
1.775 0.025 0
1.785 0.025 0
1.795 0.025 0
1.805 0.025 0
1.815 0.025 0
1.825 0.025 0
1.835 0.025 0
1.845 0.025 0
1.855 0.025 0
1.865 0.025 0
1.875 0.025 0
1.885 0.025 0
1.895 0.025 0
1.905 0.025 0
1.915 0.025 0
1.925 0.025 0
1.935 0.025 0
1.945 0.025 0
1.955 0.025 0
1.965 0.025 0
1.975 0.025 0
1.985 0.025 0
1.995 0.025 0
0.005 0.035 0
0.015 0.035 0
0.025 0.035 0
0.035 0.035 0
0.045 0.035 0
0.055 0.035 0
0.065 0.035 0
0.075 0.035 0
0.085 0.035 0
0.095 0.035 0
0.105 0.035 0
0.115 0.035 0
0.125 0.035 0
0.135 0.035 0
0.145 0.035 0
0.155 0.035 0
0.165 0.035 0
0.175 0.035 0
0.185 0.035 0
0.195 0.035 0
0.205 0.035 0
0.215 0.035 0
0.225 0.035 0
0.235 0.035 0
0.245 0.035 0
0.255 0.035 0
0.265 0.035 0
0.275 0.035 0
0.285 0.035 0
0.295 0.035 0
0.305 0.035 0
0.315 0.035 0
0.325 0.035 0
0.335 0.035 0
0.345 0.035 0
0.355 0.035 0
0.365 0.035 0
0.375 0.035 0
0.385 0.035 0
0.395 0.035 0
0.405 0.035 0
0.415 0.035 0
0.425 0.035 0
0.435 0.035 0
0.445 0.035 0
0.455 0.035 0
0.465 0.035 0
0.475 0.035 0
0.485 0.035 0
0.495 0.035 0
0.505 0.035 0
0.515 0.035 0
0.525 0.035 0
0.535 0.035 0
0.545 0.035 0
0.555 0.035 0
0.565 0.035 0
0.575 0.035 0
0.585 0.035 0
0.595 0.035 0
0.605 0.035 0
0.615 0.035 0
0.625 0.035 0
0.635 0.035 0
0.645 0.035 0
0.655 0.035 0
0.665 0.035 0
0.675 0.035 0
0.685 0.035 0
0.695 0.035 0
0.705 0.035 0
0.715 0.035 0
0.725 0.035 0
0.735 0.035 0
0.745 0.035 0
0.755 0.035 0
0.765 0.035 0
0.775 0.035 0
0.785 0.035 0
0.795 0.035 0
0.805 0.035 0
0.815 0.035 0
0.825 0.035 0
0.835 0.035 0
0.845 0.035 0
0.855 0.035 0
0.865 0.035 0
0.875 0.035 0
0.885 0.035 0
0.895 0.035 0
0.905 0.035 0
0.915 0.035 0
0.925 0.035 0
0.935 0.035 0
0.945 0.035 0
0.955 0.035 0
0.965 0.035 0
0.975 0.035 0
0.985 0.035 0
0.995 0.035 0
1.005 0.035 0
1.015 0.035 0
1.025 0.035 0
1.035 0.035 0
1.045 0.035 0
[...]
POINT_DATA 20000
VECTORS velocity float
0.999896 -2.43511e-06 0
0.999794 -5.53679e-06 0
0.999687 -9.94892e-06 0
0.999568 -1.4624e-05 0
0.999433 -2.15041e-05 0
0.999275 -2.82045e-05 0
0.999087 -3.84928e-05 0
0.998865 -4.80495e-05 0
0.998599 -6.31295e-05 0
0.998285 -7.67358e-05 0
0.997912 -9.84584e-05 0
0.997474 -0.000117675 0
0.996961 -0.000148378 0
0.996363 -0.000175127 0
0.995671 -0.000217626 0
0.994876 -0.000254151 0
0.993967 -0.000311655 0
0.992937 -0.000360417 0
0.991775 -0.00043636 0
0.990477 -0.00049984 0
0.989034 -0.000597591 0
0.987447 -0.000677997 0
0.985711 -0.000800446 0
0.983832 -0.000899323 0
0.981812 -0.00104836 0
0.979664 -0.00116615 0
0.977398 -0.00134213 0
0.975037 -0.00147771 0
0.972597 -0.00167895 0
0.970109 -0.00182932 0
0.9676 -0.00205178 0
0.965108 -0.00221194 0
0.962666 -0.00244918 0
0.960316 -0.00261229 0
0.958095 -0.00285576 0
0.956048 -0.00301355 0
0.954212 -0.00325324 0
0.95263 -0.00339674 0
0.951334 -0.00362202 0
0.950361 -0.0037423 0
0.949738 -0.00394284 0
0.949493 -0.00403185 0
0.949642 -0.00419848 0
0.950202 -0.00424962 0
0.95118 -0.004375 0
0.95258 -0.00438361 0
0.9544 -0.00446258 0
0.95663 -0.00442608 0
0.959258 -0.00445589 0
0.962266 -0.00437376 0
0.965633 -0.00435393 0
0.969332 -0.00422756 0
0.973335 -0.00415966 0
0.977608 -0.00399206 0
0.98212 -0.00387942 0
0.986831 -0.0036749 0
0.991709 -0.00352223 0
0.996711 -0.00328609 0
1.0018 -0.00309908 0
1.00694 -0.0028373 0
1.01209 -0.00262232 0
1.01721 -0.00234123 0
1.02228 -0.002105 0
1.02724 -0.00181106 0
1.03207 -0.00156033 0
1.03673 -0.0012599 0
1.0412 -0.00100128 0
1.04545 -0.000700412 0
1.04944 -0.000440134 0
1.05317 -0.000144419 0
1.0566 0.000111787 0
1.05972 0.000397332 0
1.06251 0.000644359 0
1.06496 0.000915385 0
1.06705 0.00114882 0
1.06879 0.0014017 0
1.07016 0.00161785 0
1.07116 0.00184975 0
1.0718 0.00204565 0
1.07207 0.00225447 0
1.07198 0.00242791 0
1.07154 0.00261233 0
1.07076 0.00276176 0
1.06964 0.00292117 0
1.06821 0.00304571 0
1.06648 0.00318016 0
1.06447 0.00327951 0
1.06218 0.00338967 0
1.05966 0.00346405 0
1.05691 0.00355108 0
1.05395 0.00360118 0
1.05082 0.00366667 0
1.04752 0.00369356 0
1.0441 0.00373942 0
1.04056 0.00374446 0
1.03693 0.00377283 0
1.03324 0.00375761 0
1.02951 0.00377074 0
1.02575 0.003737 0
1.022 0.00373717 0
1.01827 0.00368671 0
1.01458 0.00367613 0
1.01095 0.00361075 0
1.0074 0.00359154 0
1.00395 0.00351297 0
1.00062 0.00348703 0
0.997406 0.0033969 0
0.994338 0.00336594 0
0.991423 0.00326573 0
0.988673 0.00323122 0
0.986095 0.00312227 0
0.983701 0.00308544 0
0.981494 0.00296895 0
0.979481 0.00293082 0
0.977665 0.00280787 0
0.97605 0.00276924 0
0.974634 0.00264084 0
0.973419 0.00260233 0
0.972402 0.00246945 0
0.971581 0.00243155 0
0.97095 0.00229517 0
0.970505 0.00225823 0
0.970238 0.00211938 0
0.970143 0.00208365 0
0.97021 0.00194346 0
0.97043 0.00190911 0
0.970794 0.00176878 0
0.97129 0.00173594 0
0.971907 0.00159676 0
0.972634 0.00156552 0
0.973459 0.00142887 0
0.974369 0.00139929 0
0.975354 0.00126655 0
0.976399 0.00123869 0
0.977495 0.00111127 0
0.978628 0.00108516 0
0.979789 0.000964363 0
0.980965 0.000940062 0
0.982148 0.00082708 0
0.983327 0.000804626 0
0.984494 0.000700465 0
0.985639 0.000679901 0
0.986759 0.000585325 0
0.987841 0.000566688 0
0.988886 0.000482191 0
0.989884 0.000465502 0
0.990835 0.000391282 0
0.991733 0.000376542 0
0.992578 0.000312502 0
0.993367 0.000299681 0
0.994101 0.000245446 0
0.994777 0.000234481 0
0.995399 0.000189435 0
0.995966 0.000180228 0
0.996481 0.000143562 0
0.996945 0.000135982 0
0.997362 0.000106753 0
0.997733 0.000100642 0
0.998063 7.78384e-05 0
0.998353 7.30171e-05 0
0.998607 5.56162e-05 0
0.998828 5.18985e-05 0
0.99902 3.89177e-05 0
0.999184 3.61177e-05 0
0.999325 2.66561e-05 0
0.999444 2.45975e-05 0
0.999545 1.78619e-05 0
0.99963 1.63853e-05 0
0.999701 1.17041e-05 0
0.999759 1.06712e-05 0
0.999808 7.49615e-06 0
0.999847 6.79175e-06 0
0.999879 4.69087e-06 0
0.999905 4.22272e-06 0
0.999926 2.86693e-06 0
0.999942 2.5638e-06 0
0.999956 1.71071e-06 0
0.999966 1.51951e-06 0
0.999974 9.9628e-07 0
0.99998 8.78839e-07 0
0.999985 5.66098e-07 0
0.999989 4.9586e-07 0
0.999992 3.13742e-07 0
0.999994 2.72848e-07 0
0.999996 1.69547e-07 0
0.999997 1.46375e-07 0
0.999998 8.93144e-08 0
0.999998 7.65363e-08 0
0.999999 4.585e-08 0
0.999999 3.89944e-08 0
0.999999 2.2931e-08 0
1 1.93531e-08 0
1 1.11701e-08 0
1 9.35415e-09 0
1 5.29923e-09 0
1 4.40385e-09 0
1 2.45639e-09 0
1 2.0336e-09 0
1 1.17746e-09 0
1 1.02969e-09 0
0.999893 -7.15085e-06 0
0.999789 -1.70626e-05 0
0.99968 -2.92211e-05 0
0.999559 -4.50485e-05 0
0.999421 -6.31869e-05 0
0.999259 -8.68233e-05 0
0.999069 -0.000113177 0
0.998841 -0.000147778 0
0.998572 -0.000185761 0
0.99825 -0.000235753 0
0.997872 -0.000289975 0
0.997425 -0.000361111 0
0.996904 -0.000437405 0
0.996295 -0.000536774 0
0.995593 -0.000642144 0
0.994783 -0.000778045 0
0.993861 -0.000920444 0
0.992812 -0.00110203 0
0.991636 -0.00128989 0
0.990315 -0.00152652 0
0.988856 -0.00176797 0
0.987244 -0.00206819 0
0.985489 -0.00236995 0
0.983584 -0.00274017 0
0.981544 -0.00310619 0
0.97937 -0.00354917 0
0.977086 -0.00397915 0
0.974699 -0.00449247 0
0.972244 -0.00498062 0
0.969735 -0.00555552 0
0.967216 -0.00608976 0
0.964709 -0.00671065 0
0.962262 -0.00727258 0
0.959905 -0.00791751 0
0.957689 -0.00848334 0
0.955645 -0.00912535 0
0.953822 -0.00966769 0
0.952252 -0.010277 0
0.950978 -0.0107672 0
0.950027 -0.0113138 0
0.949434 -0.0117245 0
0.949219 -0.0121808 0
0.949404 -0.012488 0
0.950002 -0.0128309 0
0.951021 -0.0130162 0
0.952463 -0.0132285 0
0.954324 -0.0132795 0
0.956599 -0.0133508 0
0.95927 -0.0132616 0
0.962323 -0.0131883 0
0.96573 -0.0129593 0
0.969472 -0.0127438 0
0.973512 -0.0123811 0
0.977824 -0.0120315 0
0.982369 -0.0115457 0
0.987115 -0.0110743 0
0.99202 -0.0104798 0
0.99705 -0.00990236 0
1.00216 -0.00921619 0
1.00732 -0.00855082 0
1.01249 -0.00779169 0
1.01763 -0.00705784 0
1.0227 -0.00624532 0
1.02767 -0.00546297 0
1.0325 -0.0046167 0
1.03717 -0.00380561 0
1.04164 -0.00294464 0
1.04588 -0.00212373 0
1.04987 -0.001266 0
1.05359 -0.000452858 0
1.05701 0.000385259 0
1.06011 0.00117476 0
1.06289 0.00197876 0
1.06532 0.00273074 0
1.0674 0.00348822 0
1.06912 0.00419096 0
1.07047 0.00489176 0
1.07145 0.00553577 0
1.07207 0.00617199 0
1.07232 0.00675002 0
1.07221 0.00731605 0
1.07174 0.00782304 0
1.07094 0.00831542 0
1.0698 0.00874836 0
1.06835 0.00916567 0
1.0666 0.00952346 0
1.06456 0.00986617 0
1.06226 0.0101494 0
1.05972 0.0104196 0
1.05695 0.0106304 0
1.05397 0.0108316 0
1.05082 0.0109733 0
1.04751 0.01111 0
1.04407 0.0111871 0
1.04052 0.0112648 0
1.03688 0.0112822 0
1.03318 0.011307 0
1.02943 0.0112705 0
1.02566 0.0112485 0
1.0219 0.0111639 0
1.01816 0.0111016 0
1.01446 0.0109746 0
1.01083 0.0108781 0
1.00728 0.0107145 0
1.00382 0.0105896 0
1.00048 0.0103946 0
0.997264 0.0102465 0
0.994189 0.010025 0
0.991272 0.00985831 0
0.988516 0.00961456 0
0.985938 0.00943339 0
0.983538 0.00917115 0
0.981331 0.00897894 0
0.979314 0.00870149 0
0.977498 0.00850112 0
0.975878 0.00821135 0
0.974463 0.00800526 0
0.973245 0.00770575 0
0.972229 0.00749599 0
0.971405 0.00718916 0
0.970775 0.00697754 0
0.970328 0.00666574 0
0.970063 0.00645389 0
0.969967 0.00613951 0
0.970035 0.00592897 0
0.970256 0.00561448 0
0.970621 0.00540676 0
0.971118 0.00509479 0
0.971737 0.00489137 0
0.972466 0.00458467 0
0.973293 0.00438708 0
0.974207 0.00408847 0
0.975193 0.00389821 0
0.976244 0.00361052 0
0.977341 0.00342908 0
0.978481 0.00315508 0
0.979644 0.00298385 0
0.980828 0.00272609 0
0.982013 0.00256634 0
0.9832 0.00232706 0
0.98437 0.00217989 0
0.985524 0.00196091 0
0.986645 0.00182716 0
0.987738 0.00162977 0
0.988785 0.00150998 0
0.989793 0.0013349 0
0.990746 0.00122929 0
0.991654 0.00107663 0
0.992502 0.000985074 0
0.9933 0.000854316 0
0.994035 0.000776349 0
0.994721 0.000666441 0
0.995345 0.00060128 0
0.99592 0.000510693 0
0.996437 0.000457298 0
0.996908 0.000384142 0
0.997327 0.00034128 0
0.997704 0.000283435 0
0.998035 0.000249756 0
0.99833 0.000205003 0
0.998586 0.000179117 0
0.998811 0.00014526 0
0.999004 0.00012581 0
0.999172 0.000100777 0
0.999313 8.65001e-05 0
0.999436 6.84196e-05 0
0.999537 5.81857e-05 0
0.999624 4.54347e-05 0
0.999695 3.82745e-05 0
0.999755 2.94977e-05 0
0.999804 2.46098e-05 0
0.999844 1.87154e-05 0
0.999877 1.54609e-05 0
0.999903 1.15998e-05 0
0.999924 9.48687e-06 0
0.999941 7.0207e-06 0
0.999955 5.68353e-06 0
0.999965 4.14799e-06 0
0.999973 3.32332e-06 0
0.99998 2.39155e-06 0
0.999985 1.89602e-06 0
0.999989 1.34513e-06 0
0.999992 1.0551e-06 0
0.999994 7.37841e-07 0
0.999995 5.72529e-07 0
0.999997 3.94588e-07 0
0.999998 3.02847e-07 0
0.999998 2.05674e-07 0
0.999999 1.56115e-07 0
0.999999 1.0446e-07 0
0.999999 7.84054e-08 0
1 5.16816e-08 0
1 3.83536e-08 0
1 2.4902e-08 0
1 1.82712e-08 0
1 1.16903e-08 0
1 8.49371e-09 0
1 5.40844e-09 0
1 3.99855e-09 0
1 2.92563e-09 0
0.999889 -1.20971e-05 0
0.99978 -2.83125e-05 0
0.999666 -4.94267e-05 0
0.999541 -7.47549e-05 0
0.999397 -0.000106846 0
0.99923 -0.000144093 0
0.999031 -0.000191292 0
0.998796 -0.000245293 0
0.998515 -0.000313801 0
0.998183 -0.000391394 0
0.997789 -0.000489546 0
0.997329 -0.000599633 0
0.996787 -0.000737961 0
0.99616 -0.000891505 0
0.995431 -0.00108265 0
0.994599 -0.00129246 0
0.993644 -0.00155078 0
0.992568 -0.00183092 0
0.991351 -0.00217168 0
0.989999 -0.00253643 0
0.988492 -0.00297439 0
0.986845 -0.00343663 0
0.985038 -0.00398411 0
0.983095 -0.00455319 0
0.981002 -0.00521769 0
0.97879 -0.00589703 0
0.976453 -0.00667866 0
0.974032 -0.00746337 0
0.97153 -0.00835264 0
0.968996 -0.00922774 0
0.966439 -0.0102042 0
0.963918 -0.011144 0
0.961449 -0.0121762 0
0.959093 -0.0131449 0
0.956872 -0.0141921 0
0.954845 -0.0151463 0
0.953038 -0.0161613 0
0.951503 -0.0170537 0
0.950264 -0.0179868 0
0.949365 -0.0187699 0
0.948826 -0.0195738 0
0.948676 -0.0202042 0
0.948931 -0.0208371 0
0.949604 -0.0212789 0
0.950704 -0.021708 0
0.952228 -0.021935 0
0.954177 -0.0221381 0
0.956536 -0.0221347 0
0.959297 -0.0221005 0
0.962432 -0.021862 0
0.965927 -0.0215899 0
0.969746 -0.0211217 0
0.973869 -0.0206208 0
0.978251 -0.0199364 0
0.982869 -0.019224 0
0.987675 -0.0183444 0
0.992643 -0.0174439 0
0.997722 -0.0163953 0
1.00288 -0.0153351 0
1.00808 -0.0141474 0
1.01329 -0.0129587 0
1.01845 -0.011664 0
1.02354 -0.0103798 0
1.02853 -0.009011 0
1.03337 -0.00766431 0
1.03804 -0.00625393 0
1.04251 -0.00487702 0
1.04674 -0.00345611 0
1.05072 -0.00207938 0
1.05442 -0.000676774 0
1.05782 0.000671977 0
1.0609 0.00203033 0
1.06365 0.0033264 0
1.06605 0.00461789 0
1.06809 0.00584009 0
1.06977 0.00704574 0
1.07109 0.00817654 0
1.07203 0.00928118 0
1.0726 0.0103068 0
1.07281 0.0112991 0
1.07265 0.0122096 0
1.07215 0.0130817 0
1.0713 0.0138706 0
1.07012 0.0146184 0
1.06862 0.0152825 0
1.06683 0.0159052 0
1.06475 0.0164444 0
1.06241 0.0169438 0
1.05983 0.0173608 0
1.05702 0.0177415 0
1.05401 0.018041 0
1.05083 0.0183096 0
1.04749 0.0184985 0
1.04402 0.0186632 0
1.04043 0.0187497 0
1.03677 0.0188199 0
1.03304 0.0188132 0
1.02927 0.0187991 0
1.02549 0.0187089 0
1.02171 0.018621 0
1.01795 0.0184573 0
1.01424 0.0183058 0
1.01059 0.0180783 0
1.00702 0.0178731 0
1.00355 0.0175912 0
1.0002 0.0173414 0
0.996973 0.0170134 0
0.993895 0.0167272 0
0.990965 0.0163609 0
0.988207 0.0160456 0
0.985617 0.0156476 0
0.983217 0.0153095 0
0.981 0.0148857 0
0.978983 0.0145299 0
0.977159 0.0140854 0
0.975541 0.0137165 0
0.974118 0.0132556 0
0.972902 0.0128775 0
0.971879 0.0124042 0
0.971058 0.0120202 0
0.970423 0.0115382 0
0.969979 0.0111514 0
0.96971 0.0106644 0
0.969617 0.0102776 0
0.969684 0.00978942 0
0.969908 0.00940543 0
0.970274 0.00891986 0
0.970775 0.00854158 0
0.971398 0.00806268 0
0.97213 0.00769301 0
0.972963 0.00722495 0
0.973881 0.00686684 0
0.974876 0.00641388 0
0.97593 0.00607026 0
0.97704 0.00563661 0
0.978183 0.00531029 0
0.97936 0.00489994 0
0.980548 0.00459356 0
0.98175 0.00421012 0
0.98294 0.00392599 0
0.984128 0.00357252 0
0.985287 0.00331252 0
0.986428 0.00299138 0
0.987524 0.00275685 0
0.988591 0.00246956 0
0.989603 0.00226126 0
0.990577 0.00200844 0
0.991489 0.00182645 0
0.992356 0.00160778 0
0.993158 0.00145152 0
0.993913 0.00126582 0
0.994602 0.00113411 0
0.995243 0.000979383 0
0.995822 0.000870483 0
0.996355 0.000744114 0
0.996829 0.000655874 0
0.997262 0.000554778 0
0.997642 0.000484763 0
0.997985 0.000405598 0
0.998282 0.000351238 0
0.998547 0.000290598 0
0.998775 0.000249326 0
0.998975 0.000203917 0
0.999145 0.000173292 0
0.999293 0.000140067 0
0.999416 0.00011787 0
0.999522 9.41286e-05 0
0.99961 7.84209e-05 0
0.999685 6.18591e-05 0
0.999746 5.10111e-05 0
0.999797 3.97368e-05 0
0.999838 3.24278e-05 0
0.999872 2.49409e-05 0
0.999899 2.01382e-05 0
0.999921 1.52896e-05 0
0.999939 1.22127e-05 0
0.999953 9.1514e-06 0
0.999964 7.23002e-06 0
0.999972 5.34613e-06 0
0.999979 4.17696e-06 0
0.999984 3.04726e-06 0
0.999988 2.35415e-06 0
0.999991 1.6942e-06 0
0.999993 1.29398e-06 0
0.999995 9.18478e-07 0
0.999996 6.93446e-07 0
0.999997 4.85398e-07 0
0.999998 3.62212e-07 0
0.999999 2.49993e-07 0
0.999999 1.84355e-07 0
0.999999 1.2544e-07 0
1 9.14052e-08 0
1 6.13067e-08 0
1 4.41372e-08 0
1 2.91806e-08 0
1 2.07631e-08 0
1 1.35603e-08 0
1 9.6061e-09 0
1 6.43203e-09 0
1 5.055e-09 0
0.999882 -1.69616e-05 0
0.999767 -4.01926e-05 0
0.999646 -6.93008e-05 0
0.999513 -0.0001061 0
0.999362 -0.000149803 0
0.999183 -0.000204438 0
0.998975 -0.00026819 0
0.998725 -0.000347856 0
0.998431 -0.00043993 0
0.998079 -0.000554743 0
0.997668 -0.000686287 0
0.99718 -0.000849387 0
0.996614 -0.00103448 0
0.995952 -0.00126204 0
0.995193 -0.00151757 0
0.994316 -0.00182843 0
0.993324 -0.00217352 0
0.992192 -0.00258841 0
0.990931 -0.00304326 0
0.989513 -0.00358318 0
0.987956 -0.00416719 0
0.986234 -0.00485109 0
0.984372 -0.0055802 0
0.982349 -0.00642188 0
0.980199 -0.00730527 0
0.977906 -0.00830991 0
0.975516 -0.00934661 0
0.97302 -0.0105074 0
0.970473 -0.0116833 0
0.967875 -0.0129789 0
0.965289 -0.0142652 0
0.962723 -0.0156589 0
0.960245 -0.0170119 0
0.957868 -0.0184527 0
0.955662 -0.0198165 0
0.953643 -0.0212427 0
0.951876 -0.0225531 0
0.950379 -0.023897 0
0.949206 -0.0250871 0
0.948374 -0.0262811 0
0.947923 -0.0272871 0
0.947866 -0.0282695 0
0.948227 -0.0290358 0
0.949013 -0.029755 0
0.95023 -0.0302382 0
0.951881 -0.0306563 0
0.953954 -0.0308271 0
0.956446 -0.0309212 0
0.959331 -0.0307654 0
0.9626 -0.0305278 0
0.966215 -0.0300456 0
0.970161 -0.0294824 0
0.974393 -0.0286871 0
0.978892 -0.0278169 0
0.983606 -0.0267326 0
0.988514 -0.025584 0
0.993562 -0.0242436 0
0.998727 -0.0228529 0
1.00395 -0.0212957 0
1.00922 -0.0197047 0
1.01446 -0.0179743 0
1.01967 -0.0162279 0
1.0248 -0.0143701 0
1.02981 -0.0125146 0
1.03466 -0.0105753 0
1.03934 -0.00865655 0
1.0438 -0.00668055 0
1.04802 -0.00474242 0
1.05198 -0.0027719 0
1.05566 -0.000855185 0
1.05902 0.00107128 0
1.06207 0.00292983 0
1.06477 0.00477808 0
1.06712 0.00654638 0
1.06911 0.00828719 0
1.07074 0.00993823 0
1.07199 0.0115476 0
1.07287 0.0130597 0
1.07338 0.014519 0
1.07352 0.0158756 0
1.07331 0.0171715 0
1.07273 0.0183614 0
1.07182 0.0194856 0
1.07058 0.0205022 0
1.06902 0.0214511 0
1.06716 0.0222926 0
1.06502 0.023067 0
1.06262 0.0237353 0
1.05998 0.0243398 0
1.05712 0.0248404 0
1.05406 0.0252827 0
1.05083 0.0256242 0
1.04744 0.0259147 0
1.04392 0.0261077 0
1.0403 0.0262588 0
1.0366 0.0263158 0
1.03284 0.0263413 0
1.02903 0.0262757 0
1.02522 0.02619 0
1.0214 0.0260159 0
1.01763 0.0258334 0
1.01389 0.0255649 0
1.01022 0.0252998 0
1.00663 0.0249501 0
1.00315 0.0246156 0
0.999775 0.0241973 0
0.996541 0.0238057 0
0.993443 0.0233302 0
0.990509 0.0228923 0
0.987734 0.0223695 0
0.985142 0.0218947 0
0.982727 0.0213335 0
0.98051 0.0208298 0
0.978479 0.0202378 0
0.976656 0.019712 0
0.975026 0.0190957 0
0.973606 0.0185537 0
0.97238 0.0179188 0
0.971361 0.0173657 0
0.970531 0.0167174 0
0.9699 0.0161577 0
0.96945 0.015501 0
0.969186 0.0149389 0
0.96909 0.0142788 0
0.969162 0.0137185 0
0.969386 0.0130599 0
0.969757 0.0125055 0
0.970262 0.0118538 0
0.970889 0.0113096 0
0.97163 0.0106701 0
0.972468 0.0101403 0
0.973397 0.00951877 0
0.974398 0.00900774 0
0.975467 0.0084097 0
0.976582 0.00792172 0
0.977745 0.00735262 0
0.978928 0.00689172 0
0.980138 0.00635661 0
0.981346 0.00592646 0
0.982563 0.00542978 0
0.983756 0.00503348 0
0.984943 0.00457884 0
0.98609 0.00421877 0
0.987217 0.00380874 0
0.98829 0.00348646 0
0.989332 0.00312248 0
0.990312 0.00283858 0
0.991253 0.00252084 0
0.992127 0.00227496 0
0.992958 0.00200246 0
0.993718 0.0017933 0
0.994434 0.00156389 0
0.995081 0.00138928 0
0.995685 0.00119988 0
0.996223 0.00105696 0
0.996719 0.000903719 0
0.997156 0.000789121 0
0.997555 0.000667712 0
0.997902 0.000577759 0
0.998215 0.000483634 0
0.998484 0.000414563 0
0.998725 0.000343201 0
0.998928 0.00029135 0
0.999108 0.00023847 0
0.999258 0.000200438 0
0.99939 0.000162159 0
0.999498 0.000134916 0
0.999592 0.000107859 0
0.999668 8.88091e-05 0
0.999733 7.01425e-05 0
0.999785 5.71441e-05 0
0.999829 4.45792e-05 0
0.999864 3.59276e-05 0
0.999893 2.76782e-05 0
0.999916 2.20628e-05 0
0.999935 1.67817e-05 0
0.99995 1.32286e-05 0
0.999961 9.93287e-06 0
0.99997 7.74169e-06 0
0.999978 5.73732e-06 0
0.999983 4.42067e-06 0
0.999987 3.23296e-06 0
0.99999 2.46226e-06 0
0.999993 1.7767e-06 0
0.999995 1.33734e-06 0
0.999996 9.51972e-07 0
0.999997 7.08083e-07 0
0.999998 4.97167e-07 0
0.999999 3.65374e-07 0
0.999999 2.53003e-07 0
0.999999 1.83688e-07 0
0.999999 1.25423e-07 0
1 8.99492e-08 0
1 6.05551e-08 0
1 4.28976e-08 0
1 2.84851e-08 0
1 1.99675e-08 0
1 1.3196e-08 0
1 9.43724e-09 0
1 7.07869e-09 0
0.999873 -2.21307e-05 0
0.999749 -5.1959e-05 0
0.999619 -9.04078e-05 0
0.999476 -0.000137149 0
0.999312 -0.000195368 0
0.999123 -0.000264229 0
0.998897 -0.000349609 0
0.998632 -0.000449516 0
0.998315 -0.000573178 0
0.997943 -0.000716731 0
0.9975 -0.000893616 0
0.996985 -0.00109719 0
0.996378 -0.00134614 0
0.99568 -0.00162985 0
0.994867 -0.00197341 0
0.993945 -0.00236067 0
0.992885 -0.00282434 0
0.991699 -0.00334077 0
0.990357 -0.00395144 0
0.988875 -0.00462284 0
0.987224 -0.00540623 0
0.985431 -0.00625562 0
0.983467 -0.00723275 0
0.981368 -0.00827644 0
0.979111 -0.00945932 0
0.976745 -0.0107026 0
0.974251 -0.0120898 0
0.971689 -0.0135226 0
0.96905 -0.0150954 0
0.966402 -0.0166896 0
0.963744 -0.01841 0
0.961152 -0.0201182 0
0.958631 -0.0219293 0
0.956258 -0.0236867 0
0.954044 -0.0255155 0
0.952063 -0.0272444 0
0.950328 -0.0290077 0
0.948901 -0.0306235 0
0.9478 -0.0322347 0
0.94707 -0.0336535 0
0.946726 -0.0350301 0
0.946798 -0.0361754 0
0.947296 -0.0372456 0
0.948231 -0.0380541 0
0.949608 -0.0387613 0
0.951419 -0.0391867 0
0.953665 -0.0394926 0
0.956322 -0.0395071 0
0.959384 -0.0393927 0
0.962814 -0.0389874 0
0.966601 -0.0384518 0
0.970699 -0.0376352 0
0.975093 -0.0366945 0
0.979728 -0.0354906 0
0.984586 -0.034175 0
0.989612 -0.0326203 0
0.994783 -0.0309715 0
1.00004 -0.0291124 0
1.00537 -0.0271805 0
1.0107 -0.0250704 0
1.01602 -0.0229112 0
1.02128 -0.0206075 0
1.02645 -0.0182798 0
1.03148 -0.0158419 0
1.03636 -0.013405 0
1.04103 -0.0108914 0
1.0455 -0.00840319 0
1.0497 -0.00587016 0
1.05364 -0.00338517 0
1.05727 -0.000884859 0
1.0606 0.00154696 0
1.06359 0.0039676 0
1.06624 0.00630197 0
1.06852 0.00860205 0
1.07045 0.0108011 0
1.072 0.0129463 0
1.07317 0.0149788 0
1.07397 0.0169418 0
1.0744 0.0187833 0
1.07446 0.0205437 0
1.07415 0.0221767 0
1.07349 0.0237205 0
1.07249 0.0251339 0
1.07116 0.0264538 0
1.06952 0.0276425 0
1.06758 0.0287366 0
1.06536 0.029701 0
1.06289 0.0305731 0
1.06017 0.0313182 0
1.05724 0.0319763 0
1.05411 0.0325116 0
1.05081 0.0329675 0
1.04736 0.0333055 0
1.04379 0.0335741 0
1.04011 0.03373 0
1.03636 0.033828 0
1.03254 0.0338188 0
1.0287 0.0337646 0
1.02484 0.0336081 0
1.021 0.0334202 0
1.01718 0.0331348 0
1.01342 0.0328317 0
1.00971 0.032435 0
1.00611 0.0320343 0
1.0026 0.0315432 0
0.999211 0.0310614 0
0.99595 0.0304913 0
0.992845 0.0299432 0
0.989887 0.0293077 0
0.987108 0.0287063 0
0.984496 0.0280177 0
0.98208 0.0273742 0
0.979844 0.0266429 0
0.977815 0.0259668 0
0.975976 0.0252017 0
0.974349 0.0245012 0
0.972915 0.0237101 0
0.971693 0.022992 0
0.970662 0.0221819 0
0.969837 0.0214525 0
0.969198 0.0206297 0
0.968754 0.0198945 0