# vtk DataFile Version 3.0
Flow field at step 1450
ASCII
DATASET STRUCTURED_GRID
DIMENSIONS 200 100 1
POINTS 20000 float
0.005 0.005 0
0.015 0.005 0
0.025 0.005 0
0.035 0.005 0
0.045 0.005 0
0.055 0.005 0
0.065 0.005 0
0.075 0.005 0
0.085 0.005 0
0.095 0.005 0
0.105 0.005 0
0.115 0.005 0
0.125 0.005 0
0.135 0.005 0
0.145 0.005 0
0.155 0.005 0
0.165 0.005 0
0.175 0.005 0
0.185 0.005 0
0.195 0.005 0
0.205 0.005 0
0.215 0.005 0
0.225 0.005 0
0.235 0.005 0
0.245 0.005 0
0.255 0.005 0
0.265 0.005 0
0.275 0.005 0
0.285 0.005 0
0.295 0.005 0
0.305 0.005 0
0.315 0.005 0
0.325 0.005 0
0.335 0.005 0
0.345 0.005 0
0.355 0.005 0
0.365 0.005 0
0.375 0.005 0
0.385 0.005 0
0.395 0.005 0
0.405 0.005 0
0.415 0.005 0
0.425 0.005 0
0.435 0.005 0
0.445 0.005 0
0.455 0.005 0
0.465 0.005 0
0.475 0.005 0
0.485 0.005 0
0.495 0.005 0
0.505 0.005 0
0.515 0.005 0
0.525 0.005 0
0.535 0.005 0
0.545 0.005 0
0.555 0.005 0
0.565 0.005 0
0.575 0.005 0
0.585 0.005 0
0.595 0.005 0
0.605 0.005 0
0.615 0.005 0
0.625 0.005 0
0.635 0.005 0
0.645 0.005 0
0.655 0.005 0
0.665 0.005 0
0.675 0.005 0
0.685 0.005 0
0.695 0.005 0
0.705 0.005 0
0.715 0.005 0
0.725 0.005 0
0.735 0.005 0
0.745 0.005 0
0.755 0.005 0
0.765 0.005 0
0.775 0.005 0
0.785 0.005 0
0.795 0.005 0
0.805 0.005 0
0.815 0.005 0
0.825 0.005 0
0.835 0.005 0
0.845 0.005 0
0.855 0.005 0
0.865 0.005 0
0.875 0.005 0
0.885 0.005 0
0.895 0.005 0
0.905 0.005 0
0.915 0.005 0
0.925 0.005 0
0.935 0.005 0
0.945 0.005 0
0.955 0.005 0
0.965 0.005 0
0.975 0.005 0
0.985 0.005 0
0.995 0.005 0
1.005 0.005 0
1.015 0.005 0
1.025 0.005 0
1.035 0.005 0
1.045 0.005 0
1.055 0.005 0
1.065 0.005 0
1.075 0.005 0
1.085 0.005 0
1.095 0.005 0
1.105 0.005 0
1.115 0.005 0
1.125 0.005 0
1.135 0.005 0
1.145 0.005 0
1.155 0.005 0
1.165 0.005 0
1.175 0.005 0
1.185 0.005 0
1.195 0.005 0
1.205 0.005 0
1.215 0.005 0
1.225 0.005 0
1.235 0.005 0
1.245 0.005 0
1.255 0.005 0
1.265 0.005 0
1.275 0.005 0
1.285 0.005 0
1.295 0.005 0
1.305 0.005 0
1.315 0.005 0
1.325 0.005 0
1.335 0.005 0
1.345 0.005 0
1.355 0.005 0
1.365 0.005 0
1.375 0.005 0
1.385 0.005 0
1.395 0.005 0
1.405 0.005 0
1.415 0.005 0
1.425 0.005 0
1.435 0.005 0
1.445 0.005 0
1.455 0.005 0
1.465 0.005 0
1.475 0.005 0
1.485 0.005 0
1.495 0.005 0
1.505 0.005 0
1.515 0.005 0
1.525 0.005 0
1.535 0.005 0
1.545 0.005 0
1.555 0.005 0
1.565 0.005 0
1.575 0.005 0
1.585 0.005 0
1.595 0.005 0
1.605 0.005 0
1.615 0.005 0
1.625 0.005 0
1.635 0.005 0
1.645 0.005 0
1.655 0.005 0
1.665 0.005 0
1.675 0.005 0
1.685 0.005 0
1.695 0.005 0
1.705 0.005 0
1.715 0.005 0
1.725 0.005 0
1.735 0.005 0
1.745 0.005 0
1.755 0.005 0
1.765 0.005 0
1.775 0.005 0
1.785 0.005 0
1.795 0.005 0
1.805 0.005 0
1.815 0.005 0
1.825 0.005 0
1.835 0.005 0
1.845 0.005 0
1.855 0.005 0
1.865 0.005 0
1.875 0.005 0
1.885 0.005 0
1.895 0.005 0
1.905 0.005 0
1.915 0.005 0
1.925 0.005 0
1.935 0.005 0
1.945 0.005 0
1.955 0.005 0
1.965 0.005 0
1.975 0.005 0
1.985 0.005 0
1.995 0.005 0
0.005 0.015 0
0.015 0.015 0
0.025 0.015 0
0.035 0.015 0
0.045 0.015 0
0.055 0.015 0
0.065 0.015 0
0.075 0.015 0
0.085 0.015 0
0.095 0.015 0
0.105 0.015 0
0.115 0.015 0
0.125 0.015 0
0.135 0.015 0
0.145 0.015 0
0.155 0.015 0
0.165 0.015 0
0.175 0.015 0
0.185 0.015 0
0.195 0.015 0
0.205 0.015 0
0.215 0.015 0
0.225 0.015 0
0.235 0.015 0
0.245 0.015 0
0.255 0.015 0
0.265 0.015 0
0.275 0.015 0
0.285 0.015 0
0.295 0.015 0
0.305 0.015 0
0.315 0.015 0
0.325 0.015 0
0.335 0.015 0
0.345 0.015 0
0.355 0.015 0
0.365 0.015 0
0.375 0.015 0
0.385 0.015 0
0.395 0.015 0
0.405 0.015 0
0.415 0.015 0
0.425 0.015 0
0.435 0.015 0
0.445 0.015 0
0.455 0.015 0
0.465 0.015 0
0.475 0.015 0
0.485 0.015 0
0.495 0.015 0
0.505 0.015 0
0.515 0.015 0
0.525 0.015 0
0.535 0.015 0
0.545 0.015 0
0.555 0.015 0
0.565 0.015 0
0.575 0.015 0
0.585 0.015 0
0.595 0.015 0
0.605 0.015 0
0.615 0.015 0
0.625 0.015 0
0.635 0.015 0
0.645 0.015 0
0.655 0.015 0
0.665 0.015 0
0.675 0.015 0
0.685 0.015 0
0.695 0.015 0
0.705 0.015 0
0.715 0.015 0
0.725 0.015 0
0.735 0.015 0
0.745 0.015 0
0.755 0.015 0
0.765 0.015 0
0.775 0.015 0
0.785 0.015 0
0.795 0.015 0
0.805 0.015 0
0.815 0.015 0
0.825 0.015 0
0.835 0.015 0
0.845 0.015 0
0.855 0.015 0
0.865 0.015 0
0.875 0.015 0
0.885 0.015 0
0.895 0.015 0
0.905 0.015 0
0.915 0.015 0
0.925 0.015 0
0.935 0.015 0
0.945 0.015 0
0.955 0.015 0
0.965 0.015 0
0.975 0.015 0
0.985 0.015 0
0.995 0.015 0
1.005 0.015 0
1.015 0.015 0
1.025 0.015 0
1.035 0.015 0
1.045 0.015 0
1.055 0.015 0
1.065 0.015 0
1.075 0.015 0
1.085 0.015 0
1.095 0.015 0
1.105 0.015 0
1.115 0.015 0
1.125 0.015 0
1.135 0.015 0
1.145 0.015 0
1.155 0.015 0
1.165 0.015 0
1.175 0.015 0
1.185 0.015 0
1.195 0.015 0
1.205 0.015 0
1.215 0.015 0
1.225 0.015 0
1.235 0.015 0
1.245 0.015 0
1.255 0.015 0
1.265 0.015 0
1.275 0.015 0
1.285 0.015 0
1.295 0.015 0
1.305 0.015 0
1.315 0.015 0
1.325 0.015 0
1.335 0.015 0
1.345 0.015 0
1.355 0.015 0
1.365 0.015 0
1.375 0.015 0
1.385 0.015 0
1.395 0.015 0
1.405 0.015 0
1.415 0.015 0
1.425 0.015 0
1.435 0.015 0
1.445 0.015 0
1.455 0.015 0
1.465 0.015 0
1.475 0.015 0
1.485 0.015 0
1.495 0.015 0
1.505 0.015 0
1.515 0.015 0
1.525 0.015 0
1.535 0.015 0
1.545 0.015 0
1.555 0.015 0
1.565 0.015 0
1.575 0.015 0
1.585 0.015 0
1.595 0.015 0
1.605 0.015 0
1.615 0.015 0
1.625 0.015 0
1.635 0.015 0
1.645 0.015 0
1.655 0.015 0
1.665 0.015 0
1.675 0.015 0
1.685 0.015 0
1.695 0.015 0
1.705 0.015 0
1.715 0.015 0
1.725 0.015 0
1.735 0.015 0
1.745 0.015 0
1.755 0.015 0
1.765 0.015 0
1.775 0.015 0
1.785 0.015 0
1.795 0.015 0
1.805 0.015 0
1.815 0.015 0
1.825 0.015 0
1.835 0.015 0
1.845 0.015 0
1.855 0.015 0
1.865 0.015 0
1.875 0.015 0
1.885 0.015 0
1.895 0.015 0
1.905 0.015 0
1.915 0.015 0
1.925 0.015 0
1.935 0.015 0
1.945 0.015 0
1.955 0.015 0
1.965 0.015 0
1.975 0.015 0
1.985 0.015 0
1.995 0.015 0
0.005 0.025 0
0.015 0.025 0
0.025 0.025 0
0.035 0.025 0
0.045 0.025 0
0.055 0.025 0
0.065 0.025 0
0.075 0.025 0
0.085 0.025 0
0.095 0.025 0
0.105 0.025 0
0.115 0.025 0
0.125 0.025 0
0.135 0.025 0
0.145 0.025 0
0.155 0.025 0
0.165 0.025 0
0.175 0.025 0
0.185 0.025 0
0.195 0.025 0
0.205 0.025 0
0.215 0.025 0
0.225 0.025 0
0.235 0.025 0
0.245 0.025 0
0.255 0.025 0
0.265 0.025 0
0.275 0.025 0
0.285 0.025 0
0.295 0.025 0
0.305 0.025 0
0.315 0.025 0
0.325 0.025 0
0.335 0.025 0
0.345 0.025 0
0.355 0.025 0
0.365 0.025 0
0.375 0.025 0
0.385 0.025 0
0.395 0.025 0
0.405 0.025 0
0.415 0.025 0
0.425 0.025 0
0.435 0.025 0
0.445 0.025 0
0.455 0.025 0
0.465 0.025 0
0.475 0.025 0
0.485 0.025 0
0.495 0.025 0
0.505 0.025 0
0.515 0.025 0
0.525 0.025 0
0.535 0.025 0
0.545 0.025 0
0.555 0.025 0
0.565 0.025 0
0.575 0.025 0
0.585 0.025 0
0.595 0.025 0
0.605 0.025 0
0.615 0.025 0
0.625 0.025 0
0.635 0.025 0
0.645 0.025 0
0.655 0.025 0
0.665 0.025 0
0.675 0.025 0
0.685 0.025 0
0.695 0.025 0
0.705 0.025 0
0.715 0.025 0
0.725 0.025 0
0.735 0.025 0
0.745 0.025 0
0.755 0.025 0
0.765 0.025 0
0.775 0.025 0
0.785 0.025 0
0.795 0.025 0
0.805 0.025 0
0.815 0.025 0
0.825 0.025 0
0.835 0.025 0
0.845 0.025 0
0.855 0.025 0
0.865 0.025 0
0.875 0.025 0
0.885 0.025 0
0.895 0.025 0
0.905 0.025 0
0.915 0.025 0
0.925 0.025 0
0.935 0.025 0
0.945 0.025 0
0.955 0.025 0
0.965 0.025 0
0.975 0.025 0
0.985 0.025 0
0.995 0.025 0
1.005 0.025 0
1.015 0.025 0
1.025 0.025 0
1.035 0.025 0
1.045 0.025 0
1.055 0.025 0
1.065 0.025 0
1.075 0.025 0
1.085 0.025 0
1.095 0.025 0
1.105 0.025 0
1.115 0.025 0
1.125 0.025 0
1.135 0.025 0
1.145 0.025 0
1.155 0.025 0
1.165 0.025 0
1.175 0.025 0
1.185 0.025 0
1.195 0.025 0
1.205 0.025 0
1.215 0.025 0
1.225 0.025 0
1.235 0.025 0
1.245 0.025 0
1.255 0.025 0
1.265 0.025 0
1.275 0.025 0
1.285 0.025 0
1.295 0.025 0
1.305 0.025 0
1.315 0.025 0
1.325 0.025 0
1.335 0.025 0
1.345 0.025 0
1.355 0.025 0
1.365 0.025 0
1.375 0.025 0
1.385 0.025 0
1.395 0.025 0
1.405 0.025 0
1.415 0.025 0
1.425 0.025 0
1.435 0.025 0
1.445 0.025 0
1.455 0.025 0
1.465 0.025 0
1.475 0.025 0
1.485 0.025 0
1.495 0.025 0
1.505 0.025 0
1.515 0.025 0
1.525 0.025 0
1.535 0.025 0
1.545 0.025 0
1.555 0.025 0
1.565 0.025 0
1.575 0.025 0
1.585 0.025 0
1.595 0.025 0
1.605 0.025 0
1.615 0.025 0
1.625 0.025 0
1.635 0.025 0
1.645 0.025 0
1.655 0.025 0
1.665 0.025 0
1.675 0.025 0
1.685 0.025 0
1.695 0.025 0
1.705 0.025 0
1.715 0.025 0
1.725 0.025 0
1.735 0.025 0
1.745 0.025 0
1.755 0.025 0
1.765 0.025 0
1.775 0.025 0
1.785 0.025 0
1.795 0.025 0
1.805 0.025 0
1.815 0.025 0
1.825 0.025 0
1.835 0.025 0
1.845 0.025 0
1.855 0.025 0
1.865 0.025 0
1.875 0.025 0
1.885 0.025 0
1.895 0.025 0
1.905 0.025 0
1.915 0.025 0
1.925 0.025 0
1.935 0.025 0
1.945 0.025 0
1.955 0.025 0
1.965 0.025 0
1.975 0.025 0
1.985 0.025 0
1.995 0.025 0
0.005 0.035 0
0.015 0.035 0
0.025 0.035 0
0.035 0.035 0
0.045 0.035 0
0.055 0.035 0
0.065 0.035 0
0.075 0.035 0
0.085 0.035 0
0.095 0.035 0
0.105 0.035 0
0.115 0.035 0
0.125 0.035 0
0.135 0.035 0
0.145 0.035 0
0.155 0.035 0
0.165 0.035 0
0.175 0.035 0
0.185 0.035 0
0.195 0.035 0
0.205 0.035 0
0.215 0.035 0
0.225 0.035 0
0.235 0.035 0
0.245 0.035 0
0.255 0.035 0
0.265 0.035 0
0.275 0.035 0
0.285 0.035 0
0.295 0.035 0
0.305 0.035 0
0.315 0.035 0
0.325 0.035 0
0.335 0.035 0
0.345 0.035 0
0.355 0.035 0
0.365 0.035 0
0.375 0.035 0
0.385 0.035 0
0.395 0.035 0
0.405 0.035 0
0.415 0.035 0
0.425 0.035 0
0.435 0.035 0
0.445 0.035 0
0.455 0.035 0
0.465 0.035 0
0.475 0.035 0
0.485 0.035 0
0.495 0.035 0
0.505 0.035 0
0.515 0.035 0
0.525 0.035 0
0.535 0.035 0
0.545 0.035 0
0.555 0.035 0
0.565 0.035 0
0.575 0.035 0
0.585 0.035 0
0.595 0.035 0
0.605 0.035 0
0.615 0.035 0
0.625 0.035 0
0.635 0.035 0
0.645 0.035 0
0.655 0.035 0
0.665 0.035 0
0.675 0.035 0
0.685 0.035 0
0.695 0.035 0
0.705 0.035 0
0.715 0.035 0
0.725 0.035 0
0.735 0.035 0
0.745 0.035 0
0.755 0.035 0
0.765 0.035 0
0.775 0.035 0
0.785 0.035 0
0.795 0.035 0
0.805 0.035 0
0.815 0.035 0
0.825 0.035 0
0.835 0.035 0
0.845 0.035 0
0.855 0.035 0
0.865 0.035 0
0.875 0.035 0
0.885 0.035 0
0.895 0.035 0
0.905 0.035 0
0.915 0.035 0
0.925 0.035 0
0.935 0.035 0
0.945 0.035 0
0.955 0.035 0
0.965 0.035 0
0.975 0.035 0
0.985 0.035 0
0.995 0.035 0
1.005 0.035 0
1.015 0.035 0
1.025 0.035 0
1.035 0.035 0
1.045 0.035 0
[...]
POINT_DATA 20000
VECTORS velocity float
0.953404 -2.46182e-05 0
0.914162 -5.5266e-05 0
0.881494 -9.05363e-05 0
0.854555 -0.000129093 0
0.832517 -0.000170236 0
0.814617 -0.000213 0
0.800177 -0.000257287 0
0.788612 -0.000302331 0
0.779426 -0.000348474 0
0.772208 -0.000395017 0
0.766618 -0.000442606 0
0.762378 -0.000490527 0
0.759262 -0.000539621 0
0.75709 -0.000589128 0
0.755715 -0.000640001 0
0.755021 -0.000691425 0
0.754915 -0.000744401 0
0.755325 -0.000798068 0
0.756191 -0.000853419 0
0.757469 -0.000909568 0
0.759124 -0.000967445 0
0.761128 -0.00102616 0
0.763461 -0.00108654 0
0.766106 -0.00114771 0
0.769054 -0.00121035 0
0.772294 -0.00127363 0
0.775823 -0.00133802 0
0.779636 -0.00140277 0
0.783731 -0.00146814 0
0.788107 -0.00153342 0
0.792764 -0.00159865 0
0.797703 -0.00166322 0
0.802925 -0.00172689 0
0.808428 -0.00178917 0
0.814215 -0.00184953 0
0.820285 -0.00190765 0
0.826637 -0.0019627 0
0.83327 -0.00201453 0
0.840183 -0.00206206 0
0.847371 -0.0021053 0
0.854831 -0.00214296 0
0.862558 -0.00217528 0
0.870545 -0.00220073 0
0.878784 -0.00221985 0
0.887267 -0.0022309 0
0.895983 -0.00223477 0
0.90492 -0.00222955 0
0.914066 -0.00221649 0
0.923405 -0.00219356 0
0.932922 -0.00216243 0
0.942601 -0.00212095 0
0.952424 -0.00207123 0
0.962371 -0.00201103 0
0.972422 -0.00194294 0
0.982558 -0.00186461 0
0.992755 -0.00177911 0
1.00299 -0.00168397 0
1.01325 -0.00158276 0
1.0235 -0.00147284 0
1.03372 -0.00135827 0
1.04388 -0.00123621 0
1.05397 -0.00111121 0
1.06396 -0.000980142 0
1.07383 -0.000848031 0
1.08355 -0.000711413 0
1.09311 -0.00057578 0
1.10247 -0.000437239 0
1.11162 -0.000301753 0
1.12053 -0.000164915 0
1.12919 -3.3166e-05 0
1.13758 9.84996e-05 0
1.14567 0.000223151 0
1.15346 0.000346478 0
1.16091 0.000461033 0
1.16803 0.000573277 0
1.17479 0.000675213 0
1.18117 0.000774148 0
1.18718 0.000861497 0
1.19279 0.000945487 0
1.19799 0.0010169 0
1.20279 0.00108494 0
1.20717 0.0011397 0
1.21113 0.00119143 0
1.21467 0.00122948 0
1.21779 0.00126519 0
1.22047 0.00128709 0
1.22274 0.00130762 0
1.2246 0.00131449 0
1.22604 0.00132124 0
1.22708 0.00131468 0
1.22774 0.00130946 0
1.22801 0.00129145 0
1.22792 0.00127637 0
1.22748 0.00124915 0
1.22671 0.0012265 0
1.22563 0.00119243 0
1.22426 0.00116456 0
1.22261 0.001126 0
1.22072 0.00109515 0
1.2186 0.00105431 0
1.21627 0.00102255 0
1.21376 0.000981422 0
1.21109 0.000950513 0
1.20828 0.000910782 0
1.20536 0.000882147 0
1.20235 0.000845139 0
1.19926 0.00081983 0
1.19611 0.000786505 0
1.19293 0.0007652 0
1.18973 0.000736167 0
1.18652 0.000719201 0
1.18333 0.000694752 0
1.18015 0.000682163 0
1.17701 0.000662324 0
1.17391 0.000653909 0
1.17086 0.000638497 0
1.16786 0.000633875 0
1.16493 0.000622557 0
1.16207 0.000621226 0
1.15927 0.000613578 0
1.15655 0.000614968 0
1.15391 0.000610516 0
1.15133 0.000614037 0
1.14883 0.000612299 0
1.1464 0.000617373 0
1.14405 0.000617889 0
1.14176 0.000623976 0
1.13953 0.000626326 0
1.13737 0.000632941 0
1.13528 0.000636758 0
1.13323 0.000643483 0
1.13124 0.000648458 0
1.1293 0.000654943 0
1.12741 0.000660826 0
1.12556 0.000666791 0
1.12374 0.000673389 0
1.12196 0.00067862 0
1.12022 0.000685791 0
1.1185 0.000690132 0
1.11681 0.000697776 0
1.11513 0.000701128 0
1.11348 0.000709182 0
1.11184 0.000711489 0
1.11022 0.000719918 0
1.10861 0.000721165 0
1.107 0.000729953 0
1.1054 0.000730155 0
1.10381 0.000739301 0
1.10222 0.000738497 0
1.10063 0.000748005 0
1.09903 0.000746256 0
1.09744 0.00075613 0
1.09584 0.000753508 0
1.09424 0.000763749 0
1.09263 0.000760332 0
1.09101 0.000770933 0
1.08939 0.000766804 0
1.08776 0.000777745 0
1.08612 0.000772985 0
1.08447 0.000784232 0
1.08281 0.000778918 0
1.08114 0.000790421 0
1.07946 0.000784619 0
1.07778 0.00079631 0
1.07608 0.000790075 0
1.07438 0.000801868 0
1.07267 0.000795242 0
1.07095 0.000807028 0
1.06922 0.000800034 0
1.06749 0.000811687 0
1.06575 0.00080433 0
1.064 0.000815701 0
1.06225 0.000807964 0
1.06051 0.000818882 0
1.05876 0.000810725 0
1.05701 0.000820999 0
1.05526 0.000812359 0
1.05352 0.000821773 0
1.05179 0.000812562 0
1.05006 0.000820877 0
1.04835 0.000810982 0
1.04664 0.000817932 0
1.04496 0.000807217 0
1.0433 0.000812514 0
1.04165 0.00080082 0
1.04004 0.00080415 0
1.03845 0.000791306 0
1.0369 0.00079234 0
1.03538 0.000778168 0
1.03391 0.000776585 0
1.03248 0.000760943 0
1.03111 0.000756488 0
1.02979 0.000739353 0
1.02853 0.00073198 0
1.02734 0.000713681 0
1.02622 0.000703899 0
1.02519 0.000685733 0
1.02425 0.000675411 0
1.02344 0.000661235 0
1.02287 0.000655365 0
0.953388 -7.37802e-05 0
0.914134 -0.000165736 0
0.881457 -0.000271328 0
0.854511 -0.000387126 0
0.832468 -0.000510172 0
0.814564 -0.000638742 0
0.80012 -0.000771052 0
0.788552 -0.000906617 0
0.779364 -0.00104435 0
0.772144 -0.00118456 0
0.766552 -0.0013265 0
0.762309 -0.00147097 0
0.759191 -0.00161735 0
0.757017 -0.00176668 0
0.755639 -0.00191834 0
0.754943 -0.00207349 0
0.754834 -0.00223145 0
0.755241 -0.00239336 0
0.756104 -0.00255848 0
0.75738 -0.00272785 0
0.759031 -0.00290062 0
0.761032 -0.00307767 0
0.763362 -0.00325806 0
0.766005 -0.00344242 0
0.76895 -0.00362973 0
0.772188 -0.00382033 0
0.775715 -0.00401309 0
0.779526 -0.004208 0
0.78362 -0.00440386 0
0.787996 -0.00460027 0
0.792653 -0.00479593 0
0.797593 -0.00499004 0
0.802816 -0.00518124 0
0.808322 -0.0053683 0
0.814112 -0.00554983 0
0.820186 -0.00572418 0
0.826543 -0.00589001 0
0.833182 -0.00604526 0
0.840102 -0.0061887 0
0.847298 -0.00631795 0
0.854767 -0.00643196 0
0.862504 -0.00652813 0
0.870502 -0.00660569 0
0.878753 -0.00666192 0
0.887249 -0.00669646 0
0.895978 -0.00670655 0
0.904928 -0.00669241 0
0.914088 -0.00665134 0
0.923441 -0.00658421 0
0.932973 -0.00648852 0
0.942666 -0.00636587 0
0.952503 -0.00621402 0
0.962463 -0.0060354 0
0.972527 -0.00582802 0
0.982675 -0.00559519 0
0.992883 -0.0053352 0
1.00313 -0.00505219 0
1.01339 -0.00474468 0
1.02365 -0.00441764 0
1.03388 -0.0040697 0
1.04405 -0.00370663 0
1.05414 -0.00332704 0
1.06413 -0.00293737 0
1.074 -0.00253613 0
1.08372 -0.00213033 0
1.09326 -0.00171817 0
1.10262 -0.0013072 0
1.11176 -0.000895113 0
1.12066 -0.000489902 0
1.12931 -8.8635e-05 0
1.13768 0.000300346 0
1.14576 0.000680766 0
1.15353 0.00104396 0
1.16097 0.00139461 0
1.16807 0.00172374 0
1.1748 0.00203711 0
1.18117 0.00232546 0
1.18715 0.00259573 0
1.19274 0.00283837 0
1.19792 0.00306158 0
1.2027 0.00325547 0
1.20706 0.00342957 0
1.21099 0.00357361 0
1.21451 0.0036985 0
1.2176 0.00379351 0
1.22027 0.00387094 0
1.22251 0.0039195 0
1.22434 0.00395288 0
1.22577 0.00395916 0
1.22679 0.00395333 0
1.22742 0.00392275 0
1.22768 0.00388366 0
1.22757 0.00382261 0
1.22712 0.00375694 0
1.22634 0.00367233 0
1.22524 0.00358711 0
1.22386 0.00348602 0
1.2222 0.00338821 0
1.2203 0.00327749 0
1.21817 0.00317362 0
1.21583 0.00305954 0
1.21331 0.00295543 0
1.21064 0.00284342 0
1.20783 0.00274395 0
1.2049 0.00263843 0
1.20188 0.00254737 0
1.19879 0.00245167 0
1.19564 0.0023717 0
1.19245 0.00228804 0
1.18925 0.00222076 0
1.18604 0.00215037 0
1.18284 0.00209642 0
1.17966 0.00203962 0
1.17652 0.00199886 0
1.17342 0.00195528 0
1.17036 0.00192692 0
1.16737 0.00189565 0
1.16444 0.00187845 0
1.16157 0.00185823 0
1.15878 0.0018507 0
1.15605 0.00184005 0
1.1534 0.00184055 0
1.15083 0.00183791 0
1.14832 0.00184478 0
1.14589 0.00184865 0
1.14353 0.00186032 0
1.14124 0.00186926 0
1.13902 0.00188428 0
1.13686 0.00189703 0
1.13476 0.00191414 0
1.13271 0.00192961 0
1.13072 0.00194773 0
1.12878 0.00196501 0
1.12688 0.00198327 0
1.12503 0.00200164 0
1.12322 0.00201935 0
1.12144 0.00203827 0
1.11969 0.00205492 0
1.11797 0.00207399 0
1.11628 0.00208923 0
1.1146 0.00210819 0
1.11295 0.0021218 0
1.11131 0.00214051 0
1.10969 0.00215239 0
1.10808 0.00217077 0
1.10647 0.0021809 0
1.10487 0.00219896 0
1.10328 0.00220741 0
1.10169 0.00222519 0
1.1001 0.00223204 0
1.09851 0.00224961 0
1.09691 0.00225502 0
1.09532 0.00227246 0
1.09371 0.00227656 0
1.09211 0.00229394 0
1.09049 0.00229691 0
1.08887 0.00231428 0
1.08724 0.00231625 0
1.08561 0.00233365 0
1.08396 0.00233474 0
1.0823 0.00235215 0
1.08064 0.00235246 0
1.07896 0.00236984 0
1.07728 0.00236942 0
1.07559 0.00238666 0
1.07389 0.00238553 0
1.07218 0.00240248 0
1.07046 0.00240059 0
1.06874 0.00241704 0
1.06701 0.00241429 0
1.06527 0.00242997 0
1.06353 0.0024262 0
1.06179 0.00244078 0
1.06005 0.00243576 0
1.0583 0.00244883 0
1.05656 0.00244227 0
1.05482 0.00245336 0
1.05308 0.0024449 0
1.05135 0.00245347 0
1.04963 0.00244266 0
1.04792 0.00244809 0
1.04622 0.00243442 0
1.04454 0.00243602 0
1.04288 0.00241891 0
1.04125 0.00241592 0
1.03963 0.00239472 0
1.03805 0.00238632 0
1.0365 0.00236035 0
1.03499 0.00234571 0
1.03353 0.00231432 0
1.0321 0.0022927 0
1.03073 0.00225543 0
1.02942 0.00222644 0
1.02816 0.00218347 0
1.02698 0.00214779 0
1.02586 0.00210101 0
1.02483 0.00206203 0
1.02389 0.00201787 0
1.02309 0.00198567 0
1.02253 0.00196183 0
0.953357 -0.000122813 0
0.914078 -0.000275803 0
0.881382 -0.000451628 0
0.854422 -0.000644197 0
0.832368 -0.000849161 0
0.814456 -0.00106288 0
0.800006 -0.00128337 0
0.788432 -0.00150864 0
0.77924 -0.00173827 0
0.772016 -0.00197121 0
0.766419 -0.00220798 0
0.762172 -0.00244797 0
0.75905 -0.00269223 0
0.756871 -0.00294032 0
0.755488 -0.0031935 0
0.754786 -0.00345132 0
0.754673 -0.00371509 0
0.755073 -0.00398427 0
0.755931 -0.00426006 0
0.7572 -0.00454177 0
0.758846 -0.00483039 0
0.760841 -0.00512505 0
0.763165 -0.00542645 0
0.765802 -0.00573349 0
0.768742 -0.00604649 0
0.771976 -0.00636413 0
0.775498 -0.00668627 0
0.779306 -0.00701135 0
0.783398 -0.00733869 0
0.787773 -0.0076665 0
0.792431 -0.00799354 0
0.797372 -0.00831776 0
0.802598 -0.00863733 0
0.808109 -0.00895001 0
0.813905 -0.00925339 0
0.819987 -0.00954508 0
0.826355 -0.00982213 0
0.833006 -0.0100821 0
0.83994 -0.0103216 0
0.847152 -0.0105383 0
0.854639 -0.0107284 0
0.862396 -0.0108899 0
0.870416 -0.0110189 0
0.87869 -0.0111137 0
0.887211 -0.0111704 0
0.895966 -0.0111882 0
0.904944 -0.0111632 0
0.914131 -0.0110954 0
0.923513 -0.0109816 0
0.933073 -0.0108224 0
0.942795 -0.0106154 0
0.952659 -0.0103625 0
0.962646 -0.0100616 0
0.972736 -0.00971592 0
0.982908 -0.00932416 0
0.993138 -0.00889071 0
1.00341 -0.00841488 0
1.01369 -0.00790228 0
1.02396 -0.00735275 0
1.03419 -0.006773 0
1.04437 -0.0061632 0
1.05447 -0.00553105 0
1.06446 -0.00487686 0
1.07433 -0.00420912 0
1.08404 -0.00352806 0
1.09358 -0.00284279 0
1.10292 -0.00215317 0
1.11204 -0.00146879 0
1.12092 -0.000788901 0
1.12955 -0.000123387 0
1.13789 0.000529338 0
1.14594 0.00115922 0
1.15367 0.00176889 0
1.16108 0.00234824 0
1.16813 0.00290115 0
1.17483 0.00341748 0
1.18115 0.00390254 0
1.18709 0.0043462 0
1.19264 0.00475531 0
1.19777 0.00511974 0
1.2025 0.00544799 0
1.20681 0.00572987 0
1.21071 0.00597557 0
1.21417 0.0061748 0
1.21722 0.00633945 0
1.21984 0.00645902 0
1.22204 0.00654705 0
1.22383 0.00659272 0
1.22521 0.00661114 0
1.2262 0.00659103 0
1.2268 0.00654895 0
1.22702 0.00647303 0
1.22688 0.00638109 0
1.22639 0.00626051 0
1.22558 0.00613022 0
1.22446 0.00597672 0
1.22305 0.0058198 0
1.22137 0.00564498 0
1.21945 0.00547272 0
1.2173 0.00528752 0
1.21495 0.00511024 0
1.21242 0.00492437 0
1.20973 0.00475096 0
1.20691 0.00457258 0
1.20397 0.00441024 0
1.20094 0.00424572 0
1.19784 0.00409981 0
1.19469 0.0039537 0
1.1915 0.00382775 0
1.18829 0.00370281 0
1.18507 0.0035987 0
1.18187 0.00349614 0
1.17869 0.00341424 0
1.17554 0.00333395 0
1.17243 0.00327349 0
1.16938 0.00321431 0
1.16638 0.00317362 0
1.16344 0.00313368 0
1.16057 0.0031105 0
1.15778 0.00308745 0
1.15505 0.00307919 0
1.15239 0.00307047 0
1.14981 0.00307442 0
1.14731 0.00307744 0
1.14487 0.00309093 0
1.14251 0.00310321 0
1.14022 0.00312377 0
1.13799 0.00314304 0
1.13582 0.00316845 0
1.13372 0.00319272 0
1.13167 0.00322107 0
1.12968 0.00324867 0
1.12773 0.00327836 0
1.12583 0.00330791 0
1.12398 0.00333768 0
1.12216 0.00336813 0
1.12038 0.00339699 0
1.11863 0.00342756 0
1.11691 0.00345482 0
1.11521 0.00348495 0
1.11354 0.00351016 0
1.11189 0.00353951 0
1.11025 0.0035624 0
1.10863 0.0035908 0
1.10701 0.00361127 0
1.10541 0.00363867 0
1.10381 0.00365676 0
1.10222 0.00368321 0
1.10063 0.00369904 0
1.09904 0.00372466 0
1.09745 0.0037384 0
1.09586 0.00376333 0
1.09427 0.00377522 0
1.09267 0.0037996 0
1.09106 0.00380986 0
1.08946 0.00383384 0
1.08784 0.00384268 0
1.08621 0.00386636 0
1.08458 0.00387398 0
1.08294 0.00389741 0
1.08129 0.00390394 0
1.07963 0.00392712 0
1.07796 0.00393265 0
1.07629 0.00395549 0
1.0746 0.00396003 0
1.07291 0.00398236 0
1.0712 0.00398583 0
1.0695 0.00400741 0
1.06778 0.00400965 0
1.06606 0.0040301 0
1.06433 0.00403085 0
1.0626 0.00404973 0
1.06087 0.00404862 0
1.05913 0.00406536 0
1.05739 0.0040619 0
1.05566 0.00407582 0
1.05393 0.00406943 0
1.0522 0.00407973 0
1.05048 0.00406968 0
1.04877 0.00407545 0
1.04707 0.00406091 0
1.04538 0.0040611 0
1.04371 0.00404111 0
1.04206 0.00403456 0
1.04043 0.00400804 0
1.03883 0.00399349 0
1.03726 0.00395927 0
1.03572 0.00393537 0
1.03422 0.00389229 0
1.03276 0.00385775 0
1.03134 0.00380477 0
1.02998 0.00375864 0
1.02868 0.00369534 0
1.02743 0.00363769 0
1.02625 0.00356541 0
1.02515 0.00349917 0
1.02412 0.00342387 0
1.02319 0.00335918 0
1.02239 0.00329867 0
1.02183 0.00326317 0
0.95331 -0.000171568 0
0.913995 -0.000385341 0
0.88127 -0.000630872 0
0.854289 -0.000899993 0
0.832219 -0.00118613 0
0.814295 -0.00148488 0
0.799835 -0.00179262 0
0.788253 -0.00210763 0
0.779054 -0.00242809 0
0.771823 -0.00275395 0
0.76622 -0.00308439 0
0.761967 -0.00342027 0
0.758838 -0.00376123 0
0.756652 -0.0041086 0
0.755262 -0.00446213 0
0.754552 -0.0048233 0
0.75443 -0.00519179 0
0.754822 -0.00556905 0
0.75567 -0.00595456 0
0.756931 -0.00634956 0
0.758567 -0.00675329 0
0.760553 -0.00716662 0
0.762868 -0.00758853 0
0.765497 -0.00801942 0
0.768429 -0.00845792 0
0.771656 -0.00890388 0
0.775173 -0.00935554 0
0.778976 -0.00981213 0
0.783065 -0.0102715 0
0.787438 -0.0107321 0
0.792096 -0.0111914 0
0.797039 -0.0116471 0
0.802269 -0.0120962 0
0.807787 -0.0125359 0
0.813593 -0.0129626 0
0.819687 -0.0133728 0
0.82607 -0.0137628 0
0.832739 -0.0141284 0
0.839694 -0.0144658 0
0.846931 -0.0147703 0
0.854445 -0.0150385 0
0.862232 -0.0152652 0
0.870284 -0.0154473 0
0.878594 -0.0155798 0
0.887151 -0.0156603 0
0.895946 -0.0156841 0
0.904965 -0.0156494 0
0.914194 -0.0155524 0
0.923618 -0.0153925 0
0.933222 -0.0151666 0
0.942986 -0.0148755 0
0.952892 -0.0145171 0
0.962919 -0.0140939 0
0.973047 -0.0136048 0
0.983254 -0.0130539 0
0.993518 -0.0124411 0
1.00381 -0.0117722 0
1.01412 -0.011048 0
1.02441 -0.010276 0
1.03467 -0.00945754 0
1.04486 -0.00860143 0
1.05496 -0.00770965 0
1.06495 -0.00679201 0
1.07481 -0.00585069 0
1.08451 -0.00489632 0
1.09404 -0.00393092 0
1.10336 -0.0029657 0
1.11245 -0.00200218 0
1.1213 -0.00105186 0
1.12989 -0.000115444 0
1.13819 0.000795462 0
1.1462 0.0016813 0
1.15388 0.00253055 0
1.16123 0.00334504 0
1.16823 0.00411347 0
1.17486 0.00483929 0
1.18112 0.0055115 0
1.18699 0.00613534 0
1.19247 0.00670014 0
1.19754 0.00721307 0
1.2022 0.00766377 0
1.20644 0.0080614 0
1.21026 0.00839586 0
1.21366 0.00867832 0
1.21663 0.00889883 0
1.21919 0.00907052 0
1.22132 0.00918347 0
1.22305 0.00925266 0
1.22437 0.00926801 0
1.2253 0.00924621 0
1.22584 0.00917682 0
1.22601 0.00907804 0
1.22582 0.00893886 0
1.22529 0.00877873 0
1.22444 0.00858589 0
1.22328 0.00838076 0
1.22183 0.00815064 0
1.22012 0.00791664 0
1.21817 0.00766501 0
1.21599 0.00741727 0
1.21362 0.00715852 0
1.21107 0.00691042 0
1.20836 0.00665697 0
1.20552 0.00641972 0
1.20257 0.00618161 0
1.19953 0.0059639 0
1.19642 0.00574865 0
1.19325 0.00555662 0
1.19005 0.00536923 0
1.18684 0.00520658 0
1.18362 0.00504971 0
1.18041 0.00491794 0
1.17722 0.00479225 0
1.17406 0.00469105 0
1.17095 0.00459558 0
1.16789 0.00452321 0
1.16489 0.00445576 0
1.16195 0.00440946 0
1.15907 0.00436705 0
1.15627 0.00434343 0
1.15354 0.00432259 0
1.15088 0.00431797 0
1.14829 0.00431506 0
1.14578 0.00432572 0
1.14334 0.00433719 0
1.14097 0.00435955 0
1.13867 0.00438208 0
1.13644 0.00441291 0
1.13427 0.00444352 0
1.13216 0.00447995 0
1.13011 0.00451609 0
1.12811 0.00455571 0
1.12616 0.00459526 0
1.12426 0.00463609 0
1.1224 0.00467735 0
1.12057 0.00471786 0
1.11879 0.00475954 0
1.11704 0.00479858 0
1.11532 0.00483975 0
1.11362 0.00487653 0
1.11194 0.00491659 0
1.11029 0.0049506 0
1.10865 0.00498919 0
1.10703 0.00502021 0
1.10542 0.00505718 0
1.10381 0.00508515 0
1.10222 0.00512052 0
1.10063 0.00514554 0
1.09904 0.00517943 0
1.09745 0.00520172 0
1.09587 0.00523431 0
1.09428 0.00525413 0
1.0927 0.00528566 0
1.0911 0.00530331 0
1.0895 0.00533398 0
1.0879 0.00534976 0
1.08629 0.00537976 0
1.08467 0.00539393 0
1.08305 0.00542339 0
1.08141 0.00543616 0
1.07977 0.00546514 0
1.07812 0.00547662 0
1.07646 0.00550508 0
1.07479 0.00551533 0
1.07312 0.00554311 0
1.07144 0.00555204 0
1.06975 0.00557888 0
1.06805 0.00558631 0
1.06635 0.0056118 0
1.06463 0.00561741 0
1.06292 0.00564101 0
1.0612 0.00564432 0
1.05948 0.00566535 0
1.05776 0.00566573 0
1.05603 0.00568335 0
1.05431 0.00568003 0
1.05259 0.00569324 0
1.05088 0.00568527 0
1.04917 0.00569289 0
1.04748 0.00567916 0
1.04579 0.00567985 0
1.04412 0.00565908 0
1.04246 0.00565133 0
1.04082 0.00562207 0
1.03921 0.00560421 0
1.03762 0.00556485 0
1.03607 0.00553508 0
1.03454 0.00548395 0
1.03305 0.00544042 0
1.03161 0.0053759 0
1.03021 0.00531701 0
1.02886 0.00523794 0
1.02757 0.00516292 0
1.02633 0.00506962 0
1.02517 0.00498014 0
1.02407 0.00487691 0
1.02306 0.00478102 0
1.02214 0.00468256 0
1.02135 0.00460425 0
1.0208 0.00455085 0
0.953247 -0.000219986 0
0.913883 -0.000494004 0
0.881122 -0.000808837 0
0.854112 -0.0011537 0
0.832021 -0.00152064 0
0.81408 -0.00190339 0
0.799607 -0.00229814 0
0.788015 -0.00270168 0
0.778806 -0.00311289 0
0.771567 -0.00353038 0
0.765956 -0.00395458 0
0.761694 -0.00438501 0
0.758556 -0.00482295 0
0.75636 -0.00526829 0
0.75496 -0.00572264 0
0.754239 -0.00618594 0
0.754106 -0.00665982 0
0.754486 -0.00714409 0
0.755323 -0.00764018 0
0.756571 -0.00814762 0
0.758195 -0.0086675 0
0.760169 -0.00919897 0
0.762472 -0.00974262 0
0.765089 -0.0102972 0
0.768011 -0.0108626 0
0.771228 -0.0114371 0
0.774737 -0.0120199 0
0.778533 -0.0126086 0
0.782617 -0.0132017 0
0.786988 -0.0137962 0
0.791645 -0.0143896 0
0.796592 -0.0149784 0
0.801828 -0.015559 0
0.807354 -0.0161275 0
0.813173 -0.0166795 0
0.819283 -0.0172103 0
0.825686 -0.0177149 0
0.83238 -0.0181884 0
0.839362 -0.018625 0
0.846631 -0.0190197 0
0.854182 -0.0193664 0
0.862008 -0.0196605 0
0.870104 -0.0198956 0
0.878461 -0.0200677 0
0.887068 -0.0201707 0
0.895915 -0.0202016 0
0.904989 -0.0201551 0
0.914274 -0.0200294 0
0.923755 -0.0198201 0
0.933415 -0.0195271 0
0.943236 -0.0191474 0
0.953197 -0.0186828 0
0.963278 -0.0181316 0
0.973457 -0.0174976 0
0.983712 -0.0167808 0
0.994018 -0.0159871 0
1.00435 -0.0151177 0
1.01469 -0.0141804 0
1.02501 -0.0131778 0
1.03529 -0.0121194 0
1.04549 -0.0110087 0
1.0556 -0.00985666 0
1.0656 -0.00866732 0
1.07545 -0.00745273 0
1.08514 -0.00621704 0
1.09464 -0.00497307 0
1.10393 -0.00372463 0
1.11298 -0.00248494 0
1.12179 -0.00125706 0
1.13033 -5.42964e-05 0
1.13858 0.00112144 0
1.14651 0.00225705 0
1.15413 0.0033521 0
1.1614 0.00439391 0
1.16832 0.00538383 0
1.17488 0.00630974 0
1.18105 0.00717502 0
1.18683 0.0079682 0
1.19222 0.00869482 0
1.1972 0.00934411 0
1.20176 0.00992389 0
1.20591 0.010424 0
1.20964 0.0108546 0
1.21294 0.0112062 0
1.21583 0.011491 0
1.21829 0.0116999 0
1.22034 0.0118475 0
1.22198 0.0119246 0
1.22322 0.0119481 0
1.22407 0.0119086 0
1.22454 0.0118246 0
1.22464 0.0116866 0
1.22439 0.0115144 0
1.2238 0.011298 0
1.22289 0.0110583 0
1.22167 0.0107845 0
1.22018 0.0104983 0
1.21843 0.0101877 0
1.21644 0.00987496 0
1.21423 0.00954693 0
1.21182 0.00922591 0
1.20924 0.00889751 0
1.20651 0.00858386 0
1.20365 0.00826934 0
1.20068 0.00797569 0
1.19762 0.00768615 0
1.1945 0.00742187 0
1.19132 0.00716514 0
1.18811 0.0069364 0
1.18489 0.00671725 0
1.18166 0.00652725 0
1.17844 0.00634766 0
1.17524 0.00619708 0
1.17208 0.00605675 0
1.16896 0.00594421 0
1.1659 0.00584103 0
1.16289 0.0057636 0
1.15994 0.0056942 0
1.15706 0.00564794 0
1.15425 0.00560813 0
1.15151 0.00558851 0
1.14884 0.00557374 0
1.14625 0.00557603 0
1.14373 0.0055817 0
1.14129 0.00560127 0