# vtk DataFile Version 3.0
Flow field at step 450
ASCII
DATASET STRUCTURED_GRID
DIMENSIONS 200 100 1
POINTS 20000 float
0.005 0.005 0
0.015 0.005 0
0.025 0.005 0
0.035 0.005 0
0.045 0.005 0
0.055 0.005 0
0.065 0.005 0
0.075 0.005 0
0.085 0.005 0
0.095 0.005 0
0.105 0.005 0
0.115 0.005 0
0.125 0.005 0
0.135 0.005 0
0.145 0.005 0
0.155 0.005 0
0.165 0.005 0
0.175 0.005 0
0.185 0.005 0
0.195 0.005 0
0.205 0.005 0
0.215 0.005 0
0.225 0.005 0
0.235 0.005 0
0.245 0.005 0
0.255 0.005 0
0.265 0.005 0
0.275 0.005 0
0.285 0.005 0
0.295 0.005 0
0.305 0.005 0
0.315 0.005 0
0.325 0.005 0
0.335 0.005 0
0.345 0.005 0
0.355 0.005 0
0.365 0.005 0
0.375 0.005 0
0.385 0.005 0
0.395 0.005 0
0.405 0.005 0
0.415 0.005 0
0.425 0.005 0
0.435 0.005 0
0.445 0.005 0
0.455 0.005 0
0.465 0.005 0
0.475 0.005 0
0.485 0.005 0
0.495 0.005 0
0.505 0.005 0
0.515 0.005 0
0.525 0.005 0
0.535 0.005 0
0.545 0.005 0
0.555 0.005 0
0.565 0.005 0
0.575 0.005 0
0.585 0.005 0
0.595 0.005 0
0.605 0.005 0
0.615 0.005 0
0.625 0.005 0
0.635 0.005 0
0.645 0.005 0
0.655 0.005 0
0.665 0.005 0
0.675 0.005 0
0.685 0.005 0
0.695 0.005 0
0.705 0.005 0
0.715 0.005 0
0.725 0.005 0
0.735 0.005 0
0.745 0.005 0
0.755 0.005 0
0.765 0.005 0
0.775 0.005 0
0.785 0.005 0
0.795 0.005 0
0.805 0.005 0
0.815 0.005 0
0.825 0.005 0
0.835 0.005 0
0.845 0.005 0
0.855 0.005 0
0.865 0.005 0
0.875 0.005 0
0.885 0.005 0
0.895 0.005 0
0.905 0.005 0
0.915 0.005 0
0.925 0.005 0
0.935 0.005 0
0.945 0.005 0
0.955 0.005 0
0.965 0.005 0
0.975 0.005 0
0.985 0.005 0
0.995 0.005 0
1.005 0.005 0
1.015 0.005 0
1.025 0.005 0
1.035 0.005 0
1.045 0.005 0
1.055 0.005 0
1.065 0.005 0
1.075 0.005 0
1.085 0.005 0
1.095 0.005 0
1.105 0.005 0
1.115 0.005 0
1.125 0.005 0
1.135 0.005 0
1.145 0.005 0
1.155 0.005 0
1.165 0.005 0
1.175 0.005 0
1.185 0.005 0
1.195 0.005 0
1.205 0.005 0
1.215 0.005 0
1.225 0.005 0
1.235 0.005 0
1.245 0.005 0
1.255 0.005 0
1.265 0.005 0
1.275 0.005 0
1.285 0.005 0
1.295 0.005 0
1.305 0.005 0
1.315 0.005 0
1.325 0.005 0
1.335 0.005 0
1.345 0.005 0
1.355 0.005 0
1.365 0.005 0
1.375 0.005 0
1.385 0.005 0
1.395 0.005 0
1.405 0.005 0
1.415 0.005 0
1.425 0.005 0
1.435 0.005 0
1.445 0.005 0
1.455 0.005 0
1.465 0.005 0
1.475 0.005 0
1.485 0.005 0
1.495 0.005 0
1.505 0.005 0
1.515 0.005 0
1.525 0.005 0
1.535 0.005 0
1.545 0.005 0
1.555 0.005 0
1.565 0.005 0
1.575 0.005 0
1.585 0.005 0
1.595 0.005 0
1.605 0.005 0
1.615 0.005 0
1.625 0.005 0
1.635 0.005 0
1.645 0.005 0
1.655 0.005 0
1.665 0.005 0
1.675 0.005 0
1.685 0.005 0
1.695 0.005 0
1.705 0.005 0
1.715 0.005 0
1.725 0.005 0
1.735 0.005 0
1.745 0.005 0
1.755 0.005 0
1.765 0.005 0
1.775 0.005 0
1.785 0.005 0
1.795 0.005 0
1.805 0.005 0
1.815 0.005 0
1.825 0.005 0
1.835 0.005 0
1.845 0.005 0
1.855 0.005 0
1.865 0.005 0
1.875 0.005 0
1.885 0.005 0
1.895 0.005 0
1.905 0.005 0
1.915 0.005 0
1.925 0.005 0
1.935 0.005 0
1.945 0.005 0
1.955 0.005 0
1.965 0.005 0
1.975 0.005 0
1.985 0.005 0
1.995 0.005 0
0.005 0.015 0
0.015 0.015 0
0.025 0.015 0
0.035 0.015 0
0.045 0.015 0
0.055 0.015 0
0.065 0.015 0
0.075 0.015 0
0.085 0.015 0
0.095 0.015 0
0.105 0.015 0
0.115 0.015 0
0.125 0.015 0
0.135 0.015 0
0.145 0.015 0
0.155 0.015 0
0.165 0.015 0
0.175 0.015 0
0.185 0.015 0
0.195 0.015 0
0.205 0.015 0
0.215 0.015 0
0.225 0.015 0
0.235 0.015 0
0.245 0.015 0
0.255 0.015 0
0.265 0.015 0
0.275 0.015 0
0.285 0.015 0
0.295 0.015 0
0.305 0.015 0
0.315 0.015 0
0.325 0.015 0
0.335 0.015 0
0.345 0.015 0
0.355 0.015 0
0.365 0.015 0
0.375 0.015 0
0.385 0.015 0
0.395 0.015 0
0.405 0.015 0
0.415 0.015 0
0.425 0.015 0
0.435 0.015 0
0.445 0.015 0
0.455 0.015 0
0.465 0.015 0
0.475 0.015 0
0.485 0.015 0
0.495 0.015 0
0.505 0.015 0
0.515 0.015 0
0.525 0.015 0
0.535 0.015 0
0.545 0.015 0
0.555 0.015 0
0.565 0.015 0
0.575 0.015 0
0.585 0.015 0
0.595 0.015 0
0.605 0.015 0
0.615 0.015 0
0.625 0.015 0
0.635 0.015 0
0.645 0.015 0
0.655 0.015 0
0.665 0.015 0
0.675 0.015 0
0.685 0.015 0
0.695 0.015 0
0.705 0.015 0
0.715 0.015 0
0.725 0.015 0
0.735 0.015 0
0.745 0.015 0
0.755 0.015 0
0.765 0.015 0
0.775 0.015 0
0.785 0.015 0
0.795 0.015 0
0.805 0.015 0
0.815 0.015 0
0.825 0.015 0
0.835 0.015 0
0.845 0.015 0
0.855 0.015 0
0.865 0.015 0
0.875 0.015 0
0.885 0.015 0
0.895 0.015 0
0.905 0.015 0
0.915 0.015 0
0.925 0.015 0
0.935 0.015 0
0.945 0.015 0
0.955 0.015 0
0.965 0.015 0
0.975 0.015 0
0.985 0.015 0
0.995 0.015 0
1.005 0.015 0
1.015 0.015 0
1.025 0.015 0
1.035 0.015 0
1.045 0.015 0
1.055 0.015 0
1.065 0.015 0
1.075 0.015 0
1.085 0.015 0
1.095 0.015 0
1.105 0.015 0
1.115 0.015 0
1.125 0.015 0
1.135 0.015 0
1.145 0.015 0
1.155 0.015 0
1.165 0.015 0
1.175 0.015 0
1.185 0.015 0
1.195 0.015 0
1.205 0.015 0
1.215 0.015 0
1.225 0.015 0
1.235 0.015 0
1.245 0.015 0
1.255 0.015 0
1.265 0.015 0
1.275 0.015 0
1.285 0.015 0
1.295 0.015 0
1.305 0.015 0
1.315 0.015 0
1.325 0.015 0
1.335 0.015 0
1.345 0.015 0
1.355 0.015 0
1.365 0.015 0
1.375 0.015 0
1.385 0.015 0
1.395 0.015 0
1.405 0.015 0
1.415 0.015 0
1.425 0.015 0
1.435 0.015 0
1.445 0.015 0
1.455 0.015 0
1.465 0.015 0
1.475 0.015 0
1.485 0.015 0
1.495 0.015 0
1.505 0.015 0
1.515 0.015 0
1.525 0.015 0
1.535 0.015 0
1.545 0.015 0
1.555 0.015 0
1.565 0.015 0
1.575 0.015 0
1.585 0.015 0
1.595 0.015 0
1.605 0.015 0
1.615 0.015 0
1.625 0.015 0
1.635 0.015 0
1.645 0.015 0
1.655 0.015 0
1.665 0.015 0
1.675 0.015 0
1.685 0.015 0
1.695 0.015 0
1.705 0.015 0
1.715 0.015 0
1.725 0.015 0
1.735 0.015 0
1.745 0.015 0
1.755 0.015 0
1.765 0.015 0
1.775 0.015 0
1.785 0.015 0
1.795 0.015 0
1.805 0.015 0
1.815 0.015 0
1.825 0.015 0
1.835 0.015 0
1.845 0.015 0
1.855 0.015 0
1.865 0.015 0
1.875 0.015 0
1.885 0.015 0
1.895 0.015 0
1.905 0.015 0
1.915 0.015 0
1.925 0.015 0
1.935 0.015 0
1.945 0.015 0
1.955 0.015 0
1.965 0.015 0
1.975 0.015 0
1.985 0.015 0
1.995 0.015 0
0.005 0.025 0
0.015 0.025 0
0.025 0.025 0
0.035 0.025 0
0.045 0.025 0
0.055 0.025 0
0.065 0.025 0
0.075 0.025 0
0.085 0.025 0
0.095 0.025 0
0.105 0.025 0
0.115 0.025 0
0.125 0.025 0
0.135 0.025 0
0.145 0.025 0
0.155 0.025 0
0.165 0.025 0
0.175 0.025 0
0.185 0.025 0
0.195 0.025 0
0.205 0.025 0
0.215 0.025 0
0.225 0.025 0
0.235 0.025 0
0.245 0.025 0
0.255 0.025 0
0.265 0.025 0
0.275 0.025 0
0.285 0.025 0
0.295 0.025 0
0.305 0.025 0
0.315 0.025 0
0.325 0.025 0
0.335 0.025 0
0.345 0.025 0
0.355 0.025 0
0.365 0.025 0
0.375 0.025 0
0.385 0.025 0
0.395 0.025 0
0.405 0.025 0
0.415 0.025 0
0.425 0.025 0
0.435 0.025 0
0.445 0.025 0
0.455 0.025 0
0.465 0.025 0
0.475 0.025 0
0.485 0.025 0
0.495 0.025 0
0.505 0.025 0
0.515 0.025 0
0.525 0.025 0
0.535 0.025 0
0.545 0.025 0
0.555 0.025 0
0.565 0.025 0
0.575 0.025 0
0.585 0.025 0
0.595 0.025 0
0.605 0.025 0
0.615 0.025 0
0.625 0.025 0
0.635 0.025 0
0.645 0.025 0
0.655 0.025 0
0.665 0.025 0
0.675 0.025 0
0.685 0.025 0
0.695 0.025 0
0.705 0.025 0
0.715 0.025 0
0.725 0.025 0
0.735 0.025 0
0.745 0.025 0
0.755 0.025 0
0.765 0.025 0
0.775 0.025 0
0.785 0.025 0
0.795 0.025 0
0.805 0.025 0
0.815 0.025 0
0.825 0.025 0
0.835 0.025 0
0.845 0.025 0
0.855 0.025 0
0.865 0.025 0
0.875 0.025 0
0.885 0.025 0
0.895 0.025 0
0.905 0.025 0
0.915 0.025 0
0.925 0.025 0
0.935 0.025 0
0.945 0.025 0
0.955 0.025 0
0.965 0.025 0
0.975 0.025 0
0.985 0.025 0
0.995 0.025 0
1.005 0.025 0
1.015 0.025 0
1.025 0.025 0
1.035 0.025 0
1.045 0.025 0
1.055 0.025 0
1.065 0.025 0
1.075 0.025 0
1.085 0.025 0
1.095 0.025 0
1.105 0.025 0
1.115 0.025 0
1.125 0.025 0
1.135 0.025 0
1.145 0.025 0
1.155 0.025 0
1.165 0.025 0
1.175 0.025 0
1.185 0.025 0
1.195 0.025 0
1.205 0.025 0
1.215 0.025 0
1.225 0.025 0
1.235 0.025 0
1.245 0.025 0
1.255 0.025 0
1.265 0.025 0
1.275 0.025 0
1.285 0.025 0
1.295 0.025 0
1.305 0.025 0
1.315 0.025 0
1.325 0.025 0
1.335 0.025 0
1.345 0.025 0
1.355 0.025 0
1.365 0.025 0
1.375 0.025 0
1.385 0.025 0
1.395 0.025 0
1.405 0.025 0
1.415 0.025 0
1.425 0.025 0
1.435 0.025 0
1.445 0.025 0
1.455 0.025 0
1.465 0.025 0
1.475 0.025 0
1.485 0.025 0
1.495 0.025 0
1.505 0.025 0
1.515 0.025 0
1.525 0.025 0
1.535 0.025 0
1.545 0.025 0
1.555 0.025 0
1.565 0.025 0
1.575 0.025 0
1.585 0.025 0
1.595 0.025 0
1.605 0.025 0
1.615 0.025 0
1.625 0.025 0
1.635 0.025 0
1.645 0.025 0
1.655 0.025 0
1.665 0.025 0
1.675 0.025 0
1.685 0.025 0
1.695 0.025 0
1.705 0.025 0
1.715 0.025 0
1.725 0.025 0
1.735 0.025 0
1.745 0.025 0
1.755 0.025 0
1.765 0.025 0
1.775 0.025 0
1.785 0.025 0
1.795 0.025 0
1.805 0.025 0
1.815 0.025 0
1.825 0.025 0
1.835 0.025 0
1.845 0.025 0
1.855 0.025 0
1.865 0.025 0
1.875 0.025 0
1.885 0.025 0
1.895 0.025 0
1.905 0.025 0
1.915 0.025 0
1.925 0.025 0
1.935 0.025 0
1.945 0.025 0
1.955 0.025 0
1.965 0.025 0
1.975 0.025 0
1.985 0.025 0
1.995 0.025 0
0.005 0.035 0
0.015 0.035 0
0.025 0.035 0
0.035 0.035 0
0.045 0.035 0
0.055 0.035 0
0.065 0.035 0
0.075 0.035 0
0.085 0.035 0
0.095 0.035 0
0.105 0.035 0
0.115 0.035 0
0.125 0.035 0
0.135 0.035 0
0.145 0.035 0
0.155 0.035 0
0.165 0.035 0
0.175 0.035 0
0.185 0.035 0
0.195 0.035 0
0.205 0.035 0
0.215 0.035 0
0.225 0.035 0
0.235 0.035 0
0.245 0.035 0
0.255 0.035 0
0.265 0.035 0
0.275 0.035 0
0.285 0.035 0
0.295 0.035 0
0.305 0.035 0
0.315 0.035 0
0.325 0.035 0
0.335 0.035 0
0.345 0.035 0
0.355 0.035 0
0.365 0.035 0
0.375 0.035 0
0.385 0.035 0
0.395 0.035 0
0.405 0.035 0
0.415 0.035 0
0.425 0.035 0
0.435 0.035 0
0.445 0.035 0
0.455 0.035 0
0.465 0.035 0
0.475 0.035 0
0.485 0.035 0
0.495 0.035 0
0.505 0.035 0
0.515 0.035 0
0.525 0.035 0
0.535 0.035 0
0.545 0.035 0
0.555 0.035 0
0.565 0.035 0
0.575 0.035 0
0.585 0.035 0
0.595 0.035 0
0.605 0.035 0
0.615 0.035 0
0.625 0.035 0
0.635 0.035 0
0.645 0.035 0
0.655 0.035 0
0.665 0.035 0
0.675 0.035 0
0.685 0.035 0
0.695 0.035 0
0.705 0.035 0
0.715 0.035 0
0.725 0.035 0
0.735 0.035 0
0.745 0.035 0
0.755 0.035 0
0.765 0.035 0
0.775 0.035 0
0.785 0.035 0
0.795 0.035 0
0.805 0.035 0
0.815 0.035 0
0.825 0.035 0
0.835 0.035 0
0.845 0.035 0
0.855 0.035 0
0.865 0.035 0
0.875 0.035 0
0.885 0.035 0
0.895 0.035 0
0.905 0.035 0
0.915 0.035 0
0.925 0.035 0
0.935 0.035 0
0.945 0.035 0
0.955 0.035 0
0.965 0.035 0
0.975 0.035 0
0.985 0.035 0
0.995 0.035 0
1.005 0.035 0
1.015 0.035 0
1.025 0.035 0
1.035 0.035 0
1.045 0.035 0
[...]
POINT_DATA 20000
VECTORS velocity float
0.99913 -1.03618e-05 0
0.998299 -2.38442e-05 0
0.99747 -4.17193e-05 0
0.996612 -6.14652e-05 0
0.995696 -8.71999e-05 0
0.994699 -0.000113546 0
0.993599 -0.000148329 0
0.992376 -0.000182351 0
0.991011 -0.000227967 0
0.989486 -0.000271234 0
0.987785 -0.00032983 0
0.985894 -0.000384176 0
0.983798 -0.000458013 0
0.981489 -0.000525282 0
0.978956 -0.000616438 0
0.976197 -0.000698194 0
0.973208 -0.000808209 0
0.969995 -0.00090541 0
0.966564 -0.0010349 0
0.962929 -0.00114757 0
0.959109 -0.00129589 0
0.955128 -0.00142283 0
0.951016 -0.00158778 0
0.946811 -0.0017264 0
0.94255 -0.00190416 0
0.938282 -0.00205052 0
0.934055 -0.00223573 0
0.929921 -0.00238473 0
0.925934 -0.00257088 0
0.922148 -0.00271665 0
0.918617 -0.0028966 0
0.915395 -0.00303299 0
0.912529 -0.00319952 0
0.910066 -0.00332062 0
0.908048 -0.00346703 0
0.906509 -0.00356758 0
0.905481 -0.0036881 0
0.904987 -0.00376378 0
0.905047 -0.00385382 0
0.90567 -0.00390137 0
0.906864 -0.00395765 0
0.908626 -0.0039749 0
0.910954 -0.00399538 0
0.913833 -0.00398118 0
0.917252 -0.00396499 0
0.921187 -0.00391905 0
0.925616 -0.00386635 0
0.930512 -0.00378923 0
0.935846 -0.00370106 0
0.941583 -0.00359401 0
0.947692 -0.0034722 0
0.954134 -0.00333714 0
0.960875 -0.00318423 0
0.967874 -0.00302368 0
0.975093 -0.0028428 0
0.982493 -0.00265985 0
0.990036 -0.00245467 0
0.99768 -0.00225287 0
1.00539 -0.00202747 0
1.01312 -0.00181079 0
1.02085 -0.00156956 0
1.02852 -0.00134227 0
1.03611 -0.00108977 0
1.04358 -0.000856293 0
1.0509 -0.000597128 0
1.05804 -0.000361919 0
1.06496 -0.000100578 0
1.07164 0.000132001 0
1.07804 0.000391265 0
1.08416 0.00061708 0
1.08995 0.000870371 0
1.0954 0.00108563 0
1.1005 0.0013295 0
1.10521 0.00153082 0
1.10954 0.00176235 0
1.11345 0.00194687 0
1.11695 0.00216368 0
1.12002 0.00232906 0
1.12266 0.00252937 0
1.12487 0.00267382 0
1.12663 0.00285639 0
1.12795 0.00297869 0
1.12884 0.0031428 0
1.1293 0.00324225 0
1.12933 0.00338768 0
1.12894 0.00346409 0
1.12815 0.00359099 0
1.12696 0.00364461 0
1.1254 0.00375349 0
1.12347 0.00378498 0
1.12119 0.00387657 0
1.11858 0.00388693 0
1.11566 0.00396216 0
1.11245 0.00395268 0
1.10897 0.00401259 0
1.10525 0.00398478 0
1.10129 0.0040305 0
1.09713 0.00398603 0
1.09278 0.00401871 0
1.08828 0.00395942 0
1.08362 0.00398022 0
1.07885 0.00390801 0
1.07398 0.00391811 0
1.06902 0.00383493 0
1.064 0.00383549 0
1.05894 0.00374332 0
1.05385 0.0037355 0
1.04875 0.0036363 0
1.04366 0.00362125 0
1.03858 0.00351692 0
1.03355 0.00349579 0
1.02856 0.00338816 0
1.02363 0.00336205 0
1.01878 0.00325282 0
1.01401 0.0032228 0
1.00934 0.00311355 0
1.00477 0.00308061 0
1.00032 0.00297274 0
0.995997 0.00293776 0
0.991802 0.00283248 0
0.987746 0.00279623 0
0.983837 0.00269455 0
0.980081 0.00265763 0
0.976486 0.00256037 0
0.973055 0.00252321 0
0.969796 0.00243099 0
0.966711 0.00239383 0
0.963807 0.00230705 0
0.961086 0.00226996 0
0.958553 0.00218886 0
0.956209 0.00215174 0
0.954058 0.00207641 0
0.952101 0.002039 0
0.950341 0.00196939 0
0.948776 0.00193132 0
0.947409 0.00186729 0
0.946236 0.00182813 0
0.945259 0.00176944 0
0.944473 0.00172872 0
0.943879 0.0016751 0
0.94347 0.00163237 0
0.943246 0.00158351 0
0.943198 0.00153838 0
0.943325 0.00149395 0
0.943617 0.00144612 0
0.944071 0.00140578 0
0.944677 0.0013551 0
0.94543 0.00131852 0
0.946319 0.00126496 0
0.947338 0.00123183 0
0.948475 0.00117554 0
0.949723 0.00114555 0
0.95107 0.00108682 0
0.952509 0.00105967 0
0.954028 0.00099895 0
0.955617 0.000974387 0
0.957265 0.000912242 0
0.958963 0.000890007 0
0.9607 0.000827118 0
0.962467 0.000806982 0
0.964252 0.000744098 0
0.966048 0.000725856 0
0.967845 0.000663763 0
0.969633 0.000647233 0
0.971405 0.000586724 0
0.973152 0.000571749 0
0.974867 0.00051358 0
0.976544 0.000500029 0
0.978177 0.000444892 0
0.979758 0.000432657 0
0.981285 0.000381146 0
0.982752 0.000370138 0
0.984156 0.000322731 0
0.985493 0.000312879 0
0.986764 0.000269915 0
0.987963 0.000261158 0
0.989093 0.000222833 0
0.990151 0.000215117 0
0.991139 0.000181484 0
0.992056 0.000174756 0
0.992906 0.00014573 0
0.993687 0.000139934 0
0.994405 0.000115311 0
0.995059 0.000110386 0
0.995655 8.98619e-05 0
0.996193 8.5739e-05 0
0.996678 6.8936e-05 0
0.997113 6.55403e-05 0
0.997502 5.20339e-05 0
0.997847 4.92848e-05 0
0.998152 3.86297e-05 0
0.99842 3.64446e-05 0
0.998656 2.82007e-05 0
0.998861 2.64983e-05 0
0.99904 2.0261e-05 0
0.999194 1.89711e-05 0
0.999326 1.44343e-05 0
0.999439 1.3526e-05 0
0.999531 1.07012e-05 0
0.999595 1.0287e-05 0
0.999122 -3.06995e-05 0
0.998282 -7.24679e-05 0
0.997446 -0.000123613 0
0.996578 -0.000186772 0
0.995655 -0.000258424 0
0.994648 -0.000344908 0
0.993539 -0.000439733 0
0.992305 -0.000553643 0
0.990929 -0.000676122 0
0.989391 -0.000823009 0
0.987678 -0.000978745 0
0.985771 -0.00116491 0
0.983662 -0.0013599 0
0.981335 -0.00159159 0
0.978787 -0.00183138 0
0.976009 -0.00211385 0
0.973004 -0.00240258 0
0.969771 -0.00273902 0
0.966324 -0.00307835 0
0.96267 -0.00346881 0
0.958835 -0.00385694 0
0.954837 -0.00429741 0
0.950713 -0.00472839 0
0.946494 -0.00521025 0
0.942226 -0.0056737 0
0.93795 -0.00618381 0
0.933719 -0.00666528 0
0.929583 -0.00718659 0
0.925598 -0.00766854 0
0.921818 -0.00818146 0
0.918296 -0.00864463 0
0.915085 -0.00912858 0
0.912233 -0.00955368 0
0.909789 -0.00998878 0
0.907789 -0.0103579 0
0.906274 -0.0107264 0
0.905269 -0.0110241 0
0.904803 -0.0113113 0
0.904889 -0.0115255 0
0.905542 -0.0117202 0
0.906764 -0.0118421 0
0.908559 -0.011937 0
0.910915 -0.0119612 0
0.913827 -0.011952 0
0.917274 -0.0118763 0
0.921241 -0.011762 0
0.925697 -0.0115866 0
0.930624 -0.011369 0
0.935983 -0.0110968 0
0.941749 -0.01078 0
0.94788 -0.0104159 0
0.954348 -0.010006 0
0.961108 -0.009557 0
0.968129 -0.00906233 0
0.975365 -0.00853716 0
0.982783 -0.00796756 0
0.990339 -0.00737656 0
0.997997 -0.00674338 0
1.00571 -0.00609821 0
1.01346 -0.00541396 0
1.02119 -0.00472731 0
1.02886 -0.00400525 0
1.03645 -0.00329046 0
1.04392 -0.00254427 0
1.05124 -0.00181488 0
1.05837 -0.00105819 0
1.06528 -0.000327603 0
1.07195 0.000426438 0
1.07835 0.00114541 0
1.08445 0.00188446 0
1.09023 0.00257995 0
1.09567 0.00329283 0
1.10075 0.00395419 0
1.10544 0.00463114 0
1.10975 0.00524919 0
1.11364 0.00588204 0
1.11712 0.00644919 0
1.12017 0.00703145 0
1.12279 0.00754181 0
1.12497 0.00806869 0
1.12672 0.00851802 0
1.12802 0.00898639 0
1.12888 0.00937209 0
1.12932 0.00978034 0
1.12933 0.0101013 0
1.12892 0.0104492 0
1.12811 0.0107058 0
1.12691 0.0109943 0
1.12532 0.0111878 0
1.12338 0.0114188 0
1.12108 0.0115517 0
1.11846 0.011728 0
1.11553 0.0118036 0
1.11231 0.0119284 0
1.10881 0.0119505 0
1.10508 0.0120275 0
1.10111 0.0120004 0
1.09694 0.0120336 0
1.09259 0.011962 0
1.08807 0.0119555 0
1.08342 0.0118444 0
1.07864 0.0118024 0
1.07376 0.0116567 0
1.0688 0.0115836 0
1.06378 0.0114085 0
1.05872 0.0113084 0
1.05363 0.011109 0
1.04853 0.0109863 0
1.04344 0.0107676 0
1.03837 0.0106265 0
1.03333 0.0103933 0
1.02835 0.0102379 0
1.02342 0.00999483 0
1.01858 0.00982898 0
1.01381 0.00958047 0
1.00914 0.0094078 0
1.00458 0.00915777 0
1.00014 0.00898156 0
0.995816 0.00873353 0
0.991625 0.00855665 0
0.987576 0.00831359 0
0.983672 0.00813844 0
0.979923 0.00790279 0
0.976331 0.00773121 0
0.972907 0.0075048 0
0.969651 0.00733808 0
0.966573 0.00712219 0
0.963672 0.00696106 0
0.960958 0.00675639 0
0.958427 0.00660104 0
0.95609 0.0064078 0
0.953941 0.00625795 0
0.95199 0.00607592 0
0.95023 0.0059309 0
0.948671 0.00575951 0
0.947304 0.00561836 0
0.946136 0.0054568 0
0.945158 0.00531837 0
0.944378 0.00516565 0
0.943782 0.00502874 0
0.943378 0.00488381 0
0.943152 0.00474727 0
0.943109 0.0046091 0
0.943233 0.00447189 0
0.943529 0.00433953 0
0.943981 0.00420087 0
0.94459 0.00407348 0
0.94534 0.00393284 0
0.946233 0.00380976 0
0.947249 0.00366694 0
0.948389 0.00354769 0
0.949635 0.00340283 0
0.950985 0.00328711 0
0.952422 0.00314066 0
0.953943 0.00302836 0
0.95553 0.00288106 0
0.957181 0.00277223 0
0.958878 0.00262508 0
0.960617 0.00251992 0
0.962384 0.00237413 0
0.964171 0.00227296 0
0.965968 0.00212985 0
0.967766 0.00203307 0
0.969556 0.00189405 0
0.971329 0.00180212 0
0.973079 0.00166858 0
0.974796 0.00158195 0
0.976475 0.00145522 0
0.978109 0.00137436 0
0.979694 0.00125561 0
0.981222 0.00118091 0
0.982693 0.00107114 0
0.984099 0.00100292 0
0.985441 0.000902855 0
0.986712 0.000841328 0
0.987916 0.000751453 0
0.989047 0.000696699 0
0.99011 0.000617204 0
0.991099 0.000569169 0
0.99202 0.000499967 0
0.992871 0.000458457 0
0.993657 0.000399199 0
0.994375 0.000363893 0
0.995034 0.000314007 0
0.99563 0.000284471 0
0.996172 0.000243201 0
0.996658 0.000218914 0
0.997096 0.00018538 0
0.997486 0.000165761 0
0.997833 0.000139008 0
0.998139 0.000123449 0
0.99841 0.000102505 0
0.998646 9.04006e-05 0
0.998853 7.43341e-05 0
0.999032 6.51246e-05 0
0.999188 5.31309e-05 0
0.999321 4.63975e-05 0
0.999435 3.80573e-05 0
0.999527 3.38484e-05 0
0.999592 3.00735e-05 0
0.999104 -5.14494e-05 0
0.998249 -0.000120221 0
0.997395 -0.000207148 0
0.996513 -0.000309852 0
0.995571 -0.000432994 0
0.994548 -0.000572229 0
0.993418 -0.000736611 0
0.992165 -0.000918615 0
0.990764 -0.00113226 0
0.989204 -0.0013657 0
0.987462 -0.00163846 0
0.985529 -0.00193328 0
0.983386 -0.00227563 0
0.98103 -0.00264171 0
0.978446 -0.00306328 0
0.975636 -0.00350895 0
0.972592 -0.00401686 0
0.969327 -0.00454715 0
0.96584 -0.00514422 0
0.962156 -0.00575915 0
0.958284 -0.00644221 0
0.954259 -0.00713532 0
0.950105 -0.00789398 0
0.945865 -0.00865151 0
0.941575 -0.00946776 0
0.937287 -0.0102687 0
0.933047 -0.0111176 0
0.92891 -0.0119349 0
0.924928 -0.012786 0
0.921158 -0.0135885 0
0.917653 -0.0144086 0
0.914465 -0.0151638 0
0.911644 -0.0159195 0
0.909232 -0.0165958 0
0.907275 -0.017256 0
0.905802 -0.0178253 0
0.904849 -0.0183635 0
0.904432 -0.0188026 0
0.904576 -0.0191972 0
0.905283 -0.0194884 0
0.906567 -0.0197243 0
0.908418 -0.0198556 0
0.910839 -0.019923 0
0.913808 -0.0198877 0
0.91732 -0.0197824 0
0.921342 -0.0195787 0
0.925861 -0.0193009 0
0.93084 -0.0189313 0
0.936258 -0.0184857 0
0.942072 -0.0179565 0
0.948258 -0.0173516 0
0.954769 -0.0166728 0
0.961576 -0.0159202 0
0.968634 -0.015105 0
0.975909 -0.0142198 0
0.983357 -0.0132841 0
0.990944 -0.012284 0
0.998623 -0.0112465 0
1.00636 -0.0101514 0
1.01412 -0.00903249 0
1.02186 -0.00786394 0
1.02954 -0.00668574 0
1.03714 -0.00546635 0
1.04461 -0.00425152 0
1.05192 -0.00300421 0
1.05903 -0.00177548 0
1.06594 -0.000522765 0
1.07259 0.000697844 0
1.07896 0.00193453 0
1.08504 0.00312629 0
1.09079 0.0043272 0
1.09619 0.00547129 0
1.10124 0.00661883 0
1.1059 0.00769871 0
1.11017 0.00877786 0
1.11402 0.00977962 0
1.11746 0.0107781 0
1.12047 0.0116906 0
1.12305 0.0125989 0
1.12518 0.0134139 0
1.12688 0.0142256 0
1.12814 0.0149375 0
1.12897 0.0156485 0
1.12936 0.0162545 0
1.12933 0.0168633 0
1.12888 0.0173628 0
1.12803 0.0178702 0
1.12679 0.0182648 0
1.12517 0.0186732 0
1.12319 0.0189662 0
1.12086 0.0192796 0
1.11821 0.0194758 0
1.11525 0.0196993 0
1.112 0.0198046 0
1.10849 0.0199442 0
1.10473 0.0199652 0
1.10075 0.0200275 0
1.09656 0.0199717 0
1.09219 0.0199636 0
1.08766 0.0198387 0
1.083 0.0197675 0
1.07821 0.0195815 0
1.07333 0.0194546 0
1.06836 0.0192157 0
1.06334 0.0190404 0
1.05828 0.0187568 0
1.05319 0.0185405 0
1.04809 0.0182205 0
1.043 0.0179705 0
1.03793 0.0176219 0
1.0329 0.0173454 0
1.02792 0.016976 0
1.02301 0.0166798 0
1.01817 0.0162969 0
1.01341 0.0159874 0
1.00875 0.0155977 0
1.0042 0.0152809 0
0.999766 0.0148904 0
0.995453 0.0145716 0
0.991275 0.0141857 0
0.987234 0.0138694 0
0.983343 0.0134924 0
0.979602 0.0131823 0
0.976024 0.0128177 0
0.972608 0.0125163 0
0.969366 0.0121666 0
0.966294 0.0118759 0
0.963407 0.0115426 0
0.960697 0.0112633 0
0.95818 0.0109471 0
0.955846 0.0106793 0
0.953711 0.01038 0
0.951762 0.010123 0
0.950015 0.00983989 0
0.948456 0.0095923 0
0.9471 0.00932412 0
0.945931 0.00908428 0
0.944965 0.00882943 0
0.944182 0.00859544 0
0.943596 0.00835214 0
0.943188 0.00812206 0
0.942971 0.00788853 0
0.942923 0.00766055 0
0.943056 0.00743512 0
0.943347 0.00720768 0
0.943806 0.00698889 0
0.94441 0.00676085 0
0.945168 0.00654753 0
0.946054 0.00631816 0
0.947077 0.00610948 0
0.948211 0.00587858 0
0.949463 0.00567407 0
0.950809 0.00544192 0
0.952251 0.00524147 0
0.953769 0.00500883 0
0.955361 0.00481264 0
0.957009 0.0045807 0
0.958711 0.00438929 0
0.960449 0.00415958 0
0.96222 0.0039737 0
0.964008 0.003748 0
0.965808 0.00356858 0
0.967609 0.00334885 0
0.969402 0.00317694 0
0.971179 0.0029652 0
0.972932 0.00280187 0
0.974654 0.00260008 0
0.976336 0.0024464 0
0.977977 0.00225638 0
0.979565 0.00211331 0
0.9811 0.00193663 0
0.982573 0.00180498 0
0.983988 0.0016429 0
0.985332 0.00152326 0
0.986612 0.00137666 0
0.987819 0.0012694 0
0.988959 0.00113874 0
0.990024 0.00104393 0
0.991022 0.000929274 0
0.991946 0.000846723 0
0.992805 0.0007477 0
0.993593 0.000676945 0
0.994319 0.000592835 0
0.99498 0.000533179 0
0.995584 0.000462949 0
0.996127 0.000413501 0
0.996621 0.000355885 0
0.99706 0.000315614 0
0.997455 0.000269194 0
0.997804 0.000236985 0
0.998116 0.000200272 0
0.998387 0.000174991 0
0.998628 0.000146511 0
0.998836 0.000127064 0
0.999018 0.000105459 0
0.999175 9.09028e-05 0
0.999311 7.51483e-05 0
0.999425 6.50029e-05 0
0.99952 5.51749e-05 0
0.999584 5.05767e-05 0
0.999078 -7.18424e-05 0
0.998198 -0.000168958 0
0.997321 -0.000289245 0
0.996413 -0.000435413 0
0.995447 -0.000604582 0
0.994395 -0.000803966 0
0.993238 -0.00102849 0
0.991951 -0.00129031 0
0.99052 -0.00158088 0
0.988919 -0.00191772 0
0.987141 -0.0022876 0
0.985161 -0.00271376 0
0.982978 -0.00317708 0
0.980569 -0.00370674 0
0.977939 -0.0042765 0
0.975072 -0.00492151 0
0.97198 -0.00560728 0
0.968656 -0.00637474 0
0.965122 -0.00718023 0
0.961381 -0.00807001 0
0.957465 -0.00899079 0
0.95339 -0.00999351 0
0.949199 -0.0110154 0
0.94492 -0.0121112 0
0.940606 -0.0132097 0
0.936294 -0.0143687 0
0.932043 -0.0155099 0
0.927902 -0.0166934 0
0.923927 -0.0178363 0
0.920172 -0.0189999 0
0.916692 -0.0200997 0
0.913539 -0.021197 0
0.910759 -0.0222086 0
0.908402 -0.0231949 0
0.906501 -0.0240765 0
0.905098 -0.0249115 0
0.904212 -0.0256271 0
0.903878 -0.0262775 0
0.904098 -0.0267982 0
0.904897 -0.0272385 0
0.906263 -0.0275433 0
0.90821 -0.0277558 0
0.910715 -0.0278312 0
0.913781 -0.027806 0
0.917376 -0.0276457 0
0.921494 -0.0273795 0
0.926095 -0.0269837 0
0.931165 -0.0264796 0
0.936659 -0.0258539 0
0.942557 -0.0251206 0
0.948811 -0.0242762 0
0.955398 -0.0233276 0
0.962266 -0.0222805 0
0.969388 -0.0211351 0
0.976714 -0.0199059 0
0.984214 -0.0185866 0
0.991839 -0.0171996 0
0.999559 -0.0157327 0
1.00733 -0.0142157 0
1.01511 -0.0126306 0
1.02286 -0.0110137 0
1.03056 -0.00934164 0
1.03815 -0.00765668 0
1.04562 -0.0059299 0
1.05292 -0.00420908 0
1.06002 -0.00245979 0
1.0669 -0.000734826 0
1.07352 0.00100586 0
1.07986 0.00270471 0
1.0859 0.0044077 0
1.09161 0.00605253 0
1.09697 0.00769147 0
1.10196 0.00925741 0
1.10657 0.0108093 0
1.11078 0.0122751 0
1.11458 0.0137208 0
1.11795 0.0150689 0
1.1209 0.0163933 0
1.12341 0.0176103 0
1.12549 0.0188022 0
1.12712 0.0198787 0
1.12832 0.0209308 0
1.12907 0.0218612 0
1.12941 0.0227699 0
1.12931 0.0235519 0
1.12881 0.0243169 0
1.1279 0.0249516 0
1.1266 0.0255751 0
1.12493 0.0260661 0
1.1229 0.026553 0
1.12052 0.026906 0
1.11783 0.0272628 0
1.11483 0.0274853 0
1.11154 0.02772 0
1.10799 0.0278209 0
1.10421 0.0279423 0
1.10019 0.0279315 0
1.09598 0.0279493 0
1.09159 0.0278372 0
1.08705 0.0277615 0
1.08236 0.027559 0
1.07757 0.0274001 0
1.07267 0.0271185 0
1.0677 0.0268868 0
1.06267 0.0265373 0
1.05761 0.0262433 0
1.05252 0.0258373 0
1.04742 0.0254914 0
1.04233 0.0250399 0
1.03727 0.0246525 0
1.03225 0.0241663 0
1.02728 0.0237472 0
1.02238 0.0232367 0
1.01755 0.0227952 0
1.01281 0.0222701 0
1.00816 0.0218152 0
1.00363 0.0212843 0
0.999204 0.0208238 0
0.99491 0.020295 0
0.990744 0.019836 0
0.986724 0.0193159 0
0.982845 0.018864 0
0.979125 0.0183581 0
0.975559 0.0179179 0
0.972164 0.0174303 0
0.968932 0.017005 0
0.965881 0.0165384 0
0.963002 0.0161298 0
0.960314 0.0156857 0
0.957803 0.0152945 0
0.955489 0.0148731 0
0.953358 0.0144988 0
0.951428 0.0140995 0
0.949683 0.0137407 0
0.948142 0.013362 0
0.946786 0.0130167 0
0.945634 0.0126564 0
0.944665 0.012322 0
0.943897 0.0119778 0
0.943307 0.0116517 0
0.942914 0.011321 0
0.942691 0.0110006 0
0.942656 0.0106809 0
0.942781 0.0103638 0
0.943085 0.010053 0
0.943536 0.00973717 0
0.944151 0.00943344 0
0.9449 0.00911759 0
0.945796 0.00881957 0
0.946811 0.00850297 0
0.947955 0.00820984 0
0.949199 0.00789243 0
0.950553 0.00760391 0
0.95199 0.00728628 0
0.953515 0.0070026 0
0.955103 0.00668596 0
0.956758 0.00640779 0
0.958458 0.00609385 0
0.960202 0.00582227 0
0.961972 0.00551319 0
0.963766 0.00524956 0
0.965569 0.00494775 0
0.967374 0.00469367 0
0.969172 0.00440172 0
0.970954 0.00415887 0
0.972713 0.00387938 0
0.97444 0.00364944 0
0.976132 0.00338486 0
0.977776 0.00316941 0
0.979374 0.00292198 0
0.980914 0.00272241 0
0.982399 0.00249397 0
0.983817 0.00231136 0
0.985174 0.00210331 0
0.986458 0.00193841 0
0.987678 0.00175162 0
0.988822 0.00160478 0
0.9899 0.00143958 0
0.990901 0.00131074 0
0.991839 0.00116689 0
0.992701 0.00105559 0
0.993502 0.000932346 0
0.994231 0.000837726 0
0.994904 0.000733901 0
0.99551 0.000654807 0
0.996065 0.000568839 0
0.99656 0.000503861 0
0.99701 0.000433935 0
0.997407 0.000381499 0
0.997764 0.000325651 0
0.998077 0.000284109 0
0.998356 0.000240336 0
0.998598 0.000208052 0
0.998812 0.00017443 0
0.998996 0.000149893 0
0.999157 0.000124763 0
0.999294 0.00010684 0
0.999412 8.93461e-05 0
0.999507 7.81511e-05 0
0.999574 7.02279e-05 0
0.999044 -9.2662e-05 0
0.998131 -0.000216885 0
0.997221 -0.000373032 0
0.996281 -0.000558886 0
0.995279 -0.000779586 0
0.994194 -0.00103187 0
0.992996 -0.0013259 0
0.99167 -0.00165593 0
0.990189 -0.00203743 0
0.988544 -0.00246084 0
0.986708 -0.00294722 0
0.984678 -0.00348187 0
0.982428 -0.00409157 0
0.979961 -0.00475514 0
0.977258 -0.00550503 0
0.974329 -0.00631225 0
0.971159 -0.00721465 0
0.967772 -0.00817426 0
0.96416 -0.00923376 0
0.960357 -0.0103454 0
0.95637 -0.011556 0
0.952241 -0.0128077 0
0.94799 -0.0141507 0
0.94367 -0.0155175 0
0.939313 -0.0169609 0
0.934979 -0.0184052 0
0.930709 -0.0199049 0
0.926565 -0.0213785 0
0.922597 -0.0228815 0
0.918863 -0.024329 0
0.915416 -0.0257772 0
0.912306 -0.0271411 0
0.909586 -0.0284764 0
0.907293 -0.0297009 0
0.905474 -0.0308691 0
0.904153 -0.0319041 0
0.903369 -0.0328584 0
0.90313 -0.0336623 0
0.903466 -0.0343648 0
0.904368 -0.0349054 0
0.905859 -0.0353283 0
0.907916 -0.0355829 0
0.910549 -0.035708 0
0.913727 -0.0356633 0
0.917451 -0.0354815 0
0.921678 -0.0351326 0
0.926403 -0.0346431 0
0.931577 -0.0339932 0
0.937188 -0.0332027 0
0.943183 -0.032262 0
0.949544 -0.0311845 0
0.956216 -0.0299701 0
0.963178 -0.028626 0
0.970374 -0.0271612 0
0.977778 -0.025577 0
0.985337 -0.0238907 0
0.993024 -0.0220982 0
1.00079 -0.0202244 0
1.0086 -0.0182598 0
1.01641 -0.0162361 0
1.02419 -0.0141389 0
1.03189 -0.012006 0
1.03949 -0.00981759 0
1.04695 -0.00761725 0
1.05424 -0.00537973 0
1.06132 -0.00315373 0
1.06817 -0.000908399 0
1.07475 0.00130285 0
1.08105 0.00351679 0
1.08703 0.00567549 0
1.09269 0.00782202 0
1.09798 0.00989396 0
1.10291 0.0119412 0
1.10744 0.0138966 0
1.11157 0.0158173 0
1.11529 0.0176313 0
1.11858 0.0194035 0
1.12144 0.0210564 0
1.12387 0.0226633 0
1.12586 0.0241407 0
1.12741 0.0255707 0
1.12852 0.0268632 0
1.12919 0.0281097 0
1.12944 0.0292127 0
1.12927 0.0302733 0
1.12868 0.0311864 0
1.1277 0.0320628 0
1.12632 0.0327892 0
1.12459 0.0334862 0
1.12249 0.0340322 0
1.12005 0.0345574 0
1.1173 0.0349318 0
1.11425 0.0352946 0
1.11091 0.0355081 0
1.10732 0.0357197 0
1.10348 0.0357842 0
1.09944 0.0358565 0
1.09519 0.0357852 0
1.09078 0.035731 0
1.08621 0.0355375 0
1.0815 0.03537 0
1.07669 0.0350684 0
1.07178 0.034801 0
1.0668 0.0344056 0
1.06177 0.0340519 0
1.0567 0.0335771 0
1.05161 0.0331505 0
1.04652 0.0326104 0
1.04144 0.0321243 0
1.03639 0.0315329 0
1.03138 0.0310003 0
1.02642 0.030371 0
1.02153 0.0298045 0
1.01672 0.0291501 0
1.012 0.0285613 0
1.00737 0.0278937 0
1.00285 0.0272935 0
0.998456 0.0266233 0
0.994179 0.0260213 0
0.990041 0.0253577 0
0.986037 0.0247623 0
0.982186 0.0241131 0