# vtk DataFile Version 3.0
Flow field at step 550
ASCII
DATASET STRUCTURED_GRID
DIMENSIONS 200 100 1
POINTS 20000 float
0.005 0.005 0
0.015 0.005 0
0.025 0.005 0
0.035 0.005 0
0.045 0.005 0
0.055 0.005 0
0.065 0.005 0
0.075 0.005 0
0.085 0.005 0
0.095 0.005 0
0.105 0.005 0
0.115 0.005 0
0.125 0.005 0
0.135 0.005 0
0.145 0.005 0
0.155 0.005 0
0.165 0.005 0
0.175 0.005 0
0.185 0.005 0
0.195 0.005 0
0.205 0.005 0
0.215 0.005 0
0.225 0.005 0
0.235 0.005 0
0.245 0.005 0
0.255 0.005 0
0.265 0.005 0
0.275 0.005 0
0.285 0.005 0
0.295 0.005 0
0.305 0.005 0
0.315 0.005 0
0.325 0.005 0
0.335 0.005 0
0.345 0.005 0
0.355 0.005 0
0.365 0.005 0
0.375 0.005 0
0.385 0.005 0
0.395 0.005 0
0.405 0.005 0
0.415 0.005 0
0.425 0.005 0
0.435 0.005 0
0.445 0.005 0
0.455 0.005 0
0.465 0.005 0
0.475 0.005 0
0.485 0.005 0
0.495 0.005 0
0.505 0.005 0
0.515 0.005 0
0.525 0.005 0
0.535 0.005 0
0.545 0.005 0
0.555 0.005 0
0.565 0.005 0
0.575 0.005 0
0.585 0.005 0
0.595 0.005 0
0.605 0.005 0
0.615 0.005 0
0.625 0.005 0
0.635 0.005 0
0.645 0.005 0
0.655 0.005 0
0.665 0.005 0
0.675 0.005 0
0.685 0.005 0
0.695 0.005 0
0.705 0.005 0
0.715 0.005 0
0.725 0.005 0
0.735 0.005 0
0.745 0.005 0
0.755 0.005 0
0.765 0.005 0
0.775 0.005 0
0.785 0.005 0
0.795 0.005 0
0.805 0.005 0
0.815 0.005 0
0.825 0.005 0
0.835 0.005 0
0.845 0.005 0
0.855 0.005 0
0.865 0.005 0
0.875 0.005 0
0.885 0.005 0
0.895 0.005 0
0.905 0.005 0
0.915 0.005 0
0.925 0.005 0
0.935 0.005 0
0.945 0.005 0
0.955 0.005 0
0.965 0.005 0
0.975 0.005 0
0.985 0.005 0
0.995 0.005 0
1.005 0.005 0
1.015 0.005 0
1.025 0.005 0
1.035 0.005 0
1.045 0.005 0
1.055 0.005 0
1.065 0.005 0
1.075 0.005 0
1.085 0.005 0
1.095 0.005 0
1.105 0.005 0
1.115 0.005 0
1.125 0.005 0
1.135 0.005 0
1.145 0.005 0
1.155 0.005 0
1.165 0.005 0
1.175 0.005 0
1.185 0.005 0
1.195 0.005 0
1.205 0.005 0
1.215 0.005 0
1.225 0.005 0
1.235 0.005 0
1.245 0.005 0
1.255 0.005 0
1.265 0.005 0
1.275 0.005 0
1.285 0.005 0
1.295 0.005 0
1.305 0.005 0
1.315 0.005 0
1.325 0.005 0
1.335 0.005 0
1.345 0.005 0
1.355 0.005 0
1.365 0.005 0
1.375 0.005 0
1.385 0.005 0
1.395 0.005 0
1.405 0.005 0
1.415 0.005 0
1.425 0.005 0
1.435 0.005 0
1.445 0.005 0
1.455 0.005 0
1.465 0.005 0
1.475 0.005 0
1.485 0.005 0
1.495 0.005 0
1.505 0.005 0
1.515 0.005 0
1.525 0.005 0
1.535 0.005 0
1.545 0.005 0
1.555 0.005 0
1.565 0.005 0
1.575 0.005 0
1.585 0.005 0
1.595 0.005 0
1.605 0.005 0
1.615 0.005 0
1.625 0.005 0
1.635 0.005 0
1.645 0.005 0
1.655 0.005 0
1.665 0.005 0
1.675 0.005 0
1.685 0.005 0
1.695 0.005 0
1.705 0.005 0
1.715 0.005 0
1.725 0.005 0
1.735 0.005 0
1.745 0.005 0
1.755 0.005 0
1.765 0.005 0
1.775 0.005 0
1.785 0.005 0
1.795 0.005 0
1.805 0.005 0
1.815 0.005 0
1.825 0.005 0
1.835 0.005 0
1.845 0.005 0
1.855 0.005 0
1.865 0.005 0
1.875 0.005 0
1.885 0.005 0
1.895 0.005 0
1.905 0.005 0
1.915 0.005 0
1.925 0.005 0
1.935 0.005 0
1.945 0.005 0
1.955 0.005 0
1.965 0.005 0
1.975 0.005 0
1.985 0.005 0
1.995 0.005 0
0.005 0.015 0
0.015 0.015 0
0.025 0.015 0
0.035 0.015 0
0.045 0.015 0
0.055 0.015 0
0.065 0.015 0
0.075 0.015 0
0.085 0.015 0
0.095 0.015 0
0.105 0.015 0
0.115 0.015 0
0.125 0.015 0
0.135 0.015 0
0.145 0.015 0
0.155 0.015 0
0.165 0.015 0
0.175 0.015 0
0.185 0.015 0
0.195 0.015 0
0.205 0.015 0
0.215 0.015 0
0.225 0.015 0
0.235 0.015 0
0.245 0.015 0
0.255 0.015 0
0.265 0.015 0
0.275 0.015 0
0.285 0.015 0
0.295 0.015 0
0.305 0.015 0
0.315 0.015 0
0.325 0.015 0
0.335 0.015 0
0.345 0.015 0
0.355 0.015 0
0.365 0.015 0
0.375 0.015 0
0.385 0.015 0
0.395 0.015 0
0.405 0.015 0
0.415 0.015 0
0.425 0.015 0
0.435 0.015 0
0.445 0.015 0
0.455 0.015 0
0.465 0.015 0
0.475 0.015 0
0.485 0.015 0
0.495 0.015 0
0.505 0.015 0
0.515 0.015 0
0.525 0.015 0
0.535 0.015 0
0.545 0.015 0
0.555 0.015 0
0.565 0.015 0
0.575 0.015 0
0.585 0.015 0
0.595 0.015 0
0.605 0.015 0
0.615 0.015 0
0.625 0.015 0
0.635 0.015 0
0.645 0.015 0
0.655 0.015 0
0.665 0.015 0
0.675 0.015 0
0.685 0.015 0
0.695 0.015 0
0.705 0.015 0
0.715 0.015 0
0.725 0.015 0
0.735 0.015 0
0.745 0.015 0
0.755 0.015 0
0.765 0.015 0
0.775 0.015 0
0.785 0.015 0
0.795 0.015 0
0.805 0.015 0
0.815 0.015 0
0.825 0.015 0
0.835 0.015 0
0.845 0.015 0
0.855 0.015 0
0.865 0.015 0
0.875 0.015 0
0.885 0.015 0
0.895 0.015 0
0.905 0.015 0
0.915 0.015 0
0.925 0.015 0
0.935 0.015 0
0.945 0.015 0
0.955 0.015 0
0.965 0.015 0
0.975 0.015 0
0.985 0.015 0
0.995 0.015 0
1.005 0.015 0
1.015 0.015 0
1.025 0.015 0
1.035 0.015 0
1.045 0.015 0
1.055 0.015 0
1.065 0.015 0
1.075 0.015 0
1.085 0.015 0
1.095 0.015 0
1.105 0.015 0
1.115 0.015 0
1.125 0.015 0
1.135 0.015 0
1.145 0.015 0
1.155 0.015 0
1.165 0.015 0
1.175 0.015 0
1.185 0.015 0
1.195 0.015 0
1.205 0.015 0
1.215 0.015 0
1.225 0.015 0
1.235 0.015 0
1.245 0.015 0
1.255 0.015 0
1.265 0.015 0
1.275 0.015 0
1.285 0.015 0
1.295 0.015 0
1.305 0.015 0
1.315 0.015 0
1.325 0.015 0
1.335 0.015 0
1.345 0.015 0
1.355 0.015 0
1.365 0.015 0
1.375 0.015 0
1.385 0.015 0
1.395 0.015 0
1.405 0.015 0
1.415 0.015 0
1.425 0.015 0
1.435 0.015 0
1.445 0.015 0
1.455 0.015 0
1.465 0.015 0
1.475 0.015 0
1.485 0.015 0
1.495 0.015 0
1.505 0.015 0
1.515 0.015 0
1.525 0.015 0
1.535 0.015 0
1.545 0.015 0
1.555 0.015 0
1.565 0.015 0
1.575 0.015 0
1.585 0.015 0
1.595 0.015 0
1.605 0.015 0
1.615 0.015 0
1.625 0.015 0
1.635 0.015 0
1.645 0.015 0
1.655 0.015 0
1.665 0.015 0
1.675 0.015 0
1.685 0.015 0
1.695 0.015 0
1.705 0.015 0
1.715 0.015 0
1.725 0.015 0
1.735 0.015 0
1.745 0.015 0
1.755 0.015 0
1.765 0.015 0
1.775 0.015 0
1.785 0.015 0
1.795 0.015 0
1.805 0.015 0
1.815 0.015 0
1.825 0.015 0
1.835 0.015 0
1.845 0.015 0
1.855 0.015 0
1.865 0.015 0
1.875 0.015 0
1.885 0.015 0
1.895 0.015 0
1.905 0.015 0
1.915 0.015 0
1.925 0.015 0
1.935 0.015 0
1.945 0.015 0
1.955 0.015 0
1.965 0.015 0
1.975 0.015 0
1.985 0.015 0
1.995 0.015 0
0.005 0.025 0
0.015 0.025 0
0.025 0.025 0
0.035 0.025 0
0.045 0.025 0
0.055 0.025 0
0.065 0.025 0
0.075 0.025 0
0.085 0.025 0
0.095 0.025 0
0.105 0.025 0
0.115 0.025 0
0.125 0.025 0
0.135 0.025 0
0.145 0.025 0
0.155 0.025 0
0.165 0.025 0
0.175 0.025 0
0.185 0.025 0
0.195 0.025 0
0.205 0.025 0
0.215 0.025 0
0.225 0.025 0
0.235 0.025 0
0.245 0.025 0
0.255 0.025 0
0.265 0.025 0
0.275 0.025 0
0.285 0.025 0
0.295 0.025 0
0.305 0.025 0
0.315 0.025 0
0.325 0.025 0
0.335 0.025 0
0.345 0.025 0
0.355 0.025 0
0.365 0.025 0
0.375 0.025 0
0.385 0.025 0
0.395 0.025 0
0.405 0.025 0
0.415 0.025 0
0.425 0.025 0
0.435 0.025 0
0.445 0.025 0
0.455 0.025 0
0.465 0.025 0
0.475 0.025 0
0.485 0.025 0
0.495 0.025 0
0.505 0.025 0
0.515 0.025 0
0.525 0.025 0
0.535 0.025 0
0.545 0.025 0
0.555 0.025 0
0.565 0.025 0
0.575 0.025 0
0.585 0.025 0
0.595 0.025 0
0.605 0.025 0
0.615 0.025 0
0.625 0.025 0
0.635 0.025 0
0.645 0.025 0
0.655 0.025 0
0.665 0.025 0
0.675 0.025 0
0.685 0.025 0
0.695 0.025 0
0.705 0.025 0
0.715 0.025 0
0.725 0.025 0
0.735 0.025 0
0.745 0.025 0
0.755 0.025 0
0.765 0.025 0
0.775 0.025 0
0.785 0.025 0
0.795 0.025 0
0.805 0.025 0
0.815 0.025 0
0.825 0.025 0
0.835 0.025 0
0.845 0.025 0
0.855 0.025 0
0.865 0.025 0
0.875 0.025 0
0.885 0.025 0
0.895 0.025 0
0.905 0.025 0
0.915 0.025 0
0.925 0.025 0
0.935 0.025 0
0.945 0.025 0
0.955 0.025 0
0.965 0.025 0
0.975 0.025 0
0.985 0.025 0
0.995 0.025 0
1.005 0.025 0
1.015 0.025 0
1.025 0.025 0
1.035 0.025 0
1.045 0.025 0
1.055 0.025 0
1.065 0.025 0
1.075 0.025 0
1.085 0.025 0
1.095 0.025 0
1.105 0.025 0
1.115 0.025 0
1.125 0.025 0
1.135 0.025 0
1.145 0.025 0
1.155 0.025 0
1.165 0.025 0
1.175 0.025 0
1.185 0.025 0
1.195 0.025 0
1.205 0.025 0
1.215 0.025 0
1.225 0.025 0
1.235 0.025 0
1.245 0.025 0
1.255 0.025 0
1.265 0.025 0
1.275 0.025 0
1.285 0.025 0
1.295 0.025 0
1.305 0.025 0
1.315 0.025 0
1.325 0.025 0
1.335 0.025 0
1.345 0.025 0
1.355 0.025 0
1.365 0.025 0
1.375 0.025 0
1.385 0.025 0
1.395 0.025 0
1.405 0.025 0
1.415 0.025 0
1.425 0.025 0
1.435 0.025 0
1.445 0.025 0
1.455 0.025 0
1.465 0.025 0
1.475 0.025 0
1.485 0.025 0
1.495 0.025 0
1.505 0.025 0
1.515 0.025 0
1.525 0.025 0
1.535 0.025 0
1.545 0.025 0
1.555 0.025 0
1.565 0.025 0
1.575 0.025 0
1.585 0.025 0
1.595 0.025 0
1.605 0.025 0
1.615 0.025 0
1.625 0.025 0
1.635 0.025 0
1.645 0.025 0
1.655 0.025 0
1.665 0.025 0
1.675 0.025 0
1.685 0.025 0
1.695 0.025 0
1.705 0.025 0
1.715 0.025 0
1.725 0.025 0
1.735 0.025 0
1.745 0.025 0
1.755 0.025 0
1.765 0.025 0
1.775 0.025 0
1.785 0.025 0
1.795 0.025 0
1.805 0.025 0
1.815 0.025 0
1.825 0.025 0
1.835 0.025 0
1.845 0.025 0
1.855 0.025 0
1.865 0.025 0
1.875 0.025 0
1.885 0.025 0
1.895 0.025 0
1.905 0.025 0
1.915 0.025 0
1.925 0.025 0
1.935 0.025 0
1.945 0.025 0
1.955 0.025 0
1.965 0.025 0
1.975 0.025 0
1.985 0.025 0
1.995 0.025 0
0.005 0.035 0
0.015 0.035 0
0.025 0.035 0
0.035 0.035 0
0.045 0.035 0
0.055 0.035 0
0.065 0.035 0
0.075 0.035 0
0.085 0.035 0
0.095 0.035 0
0.105 0.035 0
0.115 0.035 0
0.125 0.035 0
0.135 0.035 0
0.145 0.035 0
0.155 0.035 0
0.165 0.035 0
0.175 0.035 0
0.185 0.035 0
0.195 0.035 0
0.205 0.035 0
0.215 0.035 0
0.225 0.035 0
0.235 0.035 0
0.245 0.035 0
0.255 0.035 0
0.265 0.035 0
0.275 0.035 0
0.285 0.035 0
0.295 0.035 0
0.305 0.035 0
0.315 0.035 0
0.325 0.035 0
0.335 0.035 0
0.345 0.035 0
0.355 0.035 0
0.365 0.035 0
0.375 0.035 0
0.385 0.035 0
0.395 0.035 0
0.405 0.035 0
0.415 0.035 0
0.425 0.035 0
0.435 0.035 0
0.445 0.035 0
0.455 0.035 0
0.465 0.035 0
0.475 0.035 0
0.485 0.035 0
0.495 0.035 0
0.505 0.035 0
0.515 0.035 0
0.525 0.035 0
0.535 0.035 0
0.545 0.035 0
0.555 0.035 0
0.565 0.035 0
0.575 0.035 0
0.585 0.035 0
0.595 0.035 0
0.605 0.035 0
0.615 0.035 0
0.625 0.035 0
0.635 0.035 0
0.645 0.035 0
0.655 0.035 0
0.665 0.035 0
0.675 0.035 0
0.685 0.035 0
0.695 0.035 0
0.705 0.035 0
0.715 0.035 0
0.725 0.035 0
0.735 0.035 0
0.745 0.035 0
0.755 0.035 0
0.765 0.035 0
0.775 0.035 0
0.785 0.035 0
0.795 0.035 0
0.805 0.035 0
0.815 0.035 0
0.825 0.035 0
0.835 0.035 0
0.845 0.035 0
0.855 0.035 0
0.865 0.035 0
0.875 0.035 0
0.885 0.035 0
0.895 0.035 0
0.905 0.035 0
0.915 0.035 0
0.925 0.035 0
0.935 0.035 0
0.945 0.035 0
0.955 0.035 0
0.965 0.035 0
0.975 0.035 0
0.985 0.035 0
0.995 0.035 0
1.005 0.035 0
1.015 0.035 0
1.025 0.035 0
1.035 0.035 0
1.045 0.035 0
[...]
POINT_DATA 20000
VECTORS velocity float
0.996827 -2.09097e-05 0
0.993846 -4.84178e-05 0
0.990959 -8.33738e-05 0
0.988088 -0.000122997 0
0.985167 -0.000170872 0
0.982143 -0.000221593 0
0.978974 -0.000282092 0
0.975625 -0.000343622 0
0.972068 -0.000416843 0
0.968286 -0.000489208 0
0.964265 -0.000575244 0
0.960002 -0.000658413 0
0.955496 -0.000756996 0
0.950758 -0.000850571 0
0.945803 -0.000960798 0
0.940654 -0.00106378 0
0.935341 -0.00118393 0
0.929898 -0.0012946 0
0.924369 -0.00142209 0
0.918799 -0.00153803 0
0.913241 -0.00166953 0
0.907748 -0.00178773 0
0.902379 -0.00191938 0
0.897189 -0.00203651 0
0.892238 -0.00216426 0
0.887582 -0.00227695 0
0.883274 -0.00239683 0
0.879364 -0.0025019 0
0.875899 -0.00261038 0
0.87292 -0.00270502 0
0.870464 -0.00279908 0
0.868559 -0.00288098 0
0.867231 -0.00295822 0
0.866497 -0.0030255 0
0.866372 -0.00308407 0
0.866861 -0.00313522 0
0.867968 -0.00317374 0
0.86969 -0.00320753 0
0.872019 -0.00322495 0
0.874944 -0.00324032 0
0.878452 -0.00323582 0
0.882522 -0.00323185 0
0.887136 -0.00320481 0
0.892269 -0.00318069 0
0.897897 -0.00313068 0
0.90399 -0.0030858 0
0.910522 -0.00301263 0
0.91746 -0.00294666 0
0.924775 -0.00285048 0
0.932433 -0.00276344 0
0.9404 -0.00264483 0
0.948644 -0.00253725 0
0.95713 -0.00239729 0
0.965823 -0.00227026 0
0.97469 -0.00211059 0
0.983694 -0.00196581 0
0.992802 -0.00178864 0
1.00198 -0.0016284 0
1.01119 -0.00143649 0
1.0204 -0.00126361 0
1.02959 -0.00106016 0
1.03871 -0.000877925 0
1.04773 -0.000666465 0
1.05663 -0.000478465 0
1.06537 -0.00026274 0
1.07393 -7.27243e-05 0
1.08227 0.00014348 0
1.09038 0.000331744 0
1.09822 0.000544751 0
1.10577 0.00072763 0
1.11301 0.000934009 0
1.11992 0.00110814 0
1.12647 0.00130482 0
1.13265 0.00146721 0
1.13845 0.00165161 0
1.14384 0.00179971 0
1.14881 0.00196976 0
1.15336 0.00210158 0
1.15747 0.0022558 0
1.16113 0.00236986 0
1.16434 0.00250735 0
1.16709 0.00260275 0
1.16939 0.00272317 0
1.17123 0.00279952 0
1.17261 0.00290308 0
1.17354 0.0029605 0
1.17403 0.00304785 0
1.17408 0.00308687 0
1.1737 0.00315906 0
1.1729 0.00318055 0
1.1717 0.00323888 0
1.17011 0.00324399 0
1.16814 0.00328996 0
1.16582 0.00328 0
1.16316 0.00331517 0
1.16018 0.00329154 0
1.1569 0.00331744 0
1.15334 0.00328155 0
1.14952 0.0032996 0
1.14546 0.00325282 0
1.14118 0.0032643 0
1.13671 0.0032079 0
1.13206 0.00321387 0
1.12725 0.00314903 0
1.1223 0.00315035 0
1.11724 0.00307811 0
1.11207 0.00307546 0
1.10682 0.00299678 0
1.10151 0.00299063 0
1.09615 0.00290638 0
1.09075 0.00289712 0
1.08533 0.0028081 0
1.0799 0.00279601 0
1.07448 0.002703 0
1.06907 0.00268834 0
1.0637 0.00259211 0
1.05836 0.00257513 0
1.05306 0.00247644 0
1.04783 0.00245745 0
1.04265 0.00235709 0
1.03755 0.00233645 0
1.03252 0.0022352 0
1.02757 0.00221334 0
1.02271 0.00211199 0
1.01795 0.00208943 0
1.01327 0.00198876 0
1.0087 0.00196606 0
1.00423 0.00186683 0
0.999859 0.0018446 0
0.995598 0.0017475 0
0.991446 0.00172636 0
0.987404 0.00163206 0
0.983474 0.00161262 0
0.979658 0.00152167 0
0.975957 0.0015045 0
0.972371 0.00141738 0
0.968903 0.00140297 0
0.965552 0.00132006 0
0.96232 0.00130881 0
0.959208 0.0012304 0
0.956217 0.00122257 0
0.953349 0.00114884 0
0.950604 0.00114457 0
0.947985 0.00107561 0
0.945492 0.0010749 0
0.943128 0.00101069 0
0.940894 0.00101339 0
0.938791 0.000953863 0
0.936822 0.000959686 0
0.934989 0.000904683 0
0.933292 0.000913216 0
0.931735 0.000862535 0
0.930318 0.000873253 0
0.929044 0.00082665 0
0.927914 0.000838941 0
0.926929 0.000796151 0
0.92609 0.00080934 0
0.925397 0.000770084 0
0.924852 0.000783465 0
0.924454 0.000747465 0
0.924202 0.000760328 0
0.924097 0.000727315 0
0.924136 0.000738975 0
0.924319 0.000708697 0
0.924641 0.000718521 0
0.925103 0.000690748 0
0.925698 0.000698179 0
0.926426 0.000672703 0
0.92728 0.000677278 0
0.928257 0.000653915 0
0.92935 0.000655283 0
0.930557 0.000633867 0
0.931869 0.000631792 0
0.933281 0.000612176 0
0.934786 0.000606548 0
0.936377 0.000588599 0
0.938047 0.000579427 0
0.93979 0.000563022 0
0.941595 0.000550429 0
0.943459 0.000535454 0
0.945369 0.000519669 0
0.947322 0.000506015 0
0.949306 0.000487358 0
0.951317 0.00047492 0
0.953345 0.000453788 0
0.955383 0.000442465 0
0.957423 0.000419315 0
0.95946 0.000409012 0
0.961485 0.000384344 0
0.963493 0.000374973 0
0.965477 0.000349331 0
0.967433 0.000340822 0
0.969356 0.000314836 0
0.97124 0.000307161 0
0.973082 0.000281725 0
0.974876 0.000274975 0
0.976613 0.000251816 0
0.978267 0.000246431 0
0.979762 0.000229676 0
0.980867 0.000227069 0
0.996811 -6.23141e-05 0
0.993814 -0.000146061 0
0.990913 -0.000248469 0
0.988028 -0.000370999 0
0.985094 -0.000509274 0
0.982057 -0.000668257 0
0.978875 -0.000840905 0
0.975512 -0.00103595 0
0.971943 -0.0012429 0
0.968147 -0.00147432 0
0.964114 -0.00171573 0
0.959837 -0.00198339 0
0.95532 -0.00225864 0
0.95057 -0.00256103 0
0.945604 -0.00286786 0
0.940444 -0.00320139 0
0.935121 -0.00353539 0
0.929671 -0.00389404 0
0.924135 -0.00424848 0
0.91856 -0.0046239 0
0.912998 -0.00499 0
0.907505 -0.00537196 0
0.902135 -0.00573951 0
0.896948 -0.00611673 0
0.892001 -0.00647492 0
0.887351 -0.00683598 0
0.883049 -0.00717429 0
0.879149 -0.0075085 0
0.875694 -0.00781738 0
0.872727 -0.00811537 0
0.870282 -0.00838672 0
0.868392 -0.00864077 0
0.867077 -0.00886798 0
0.86636 -0.00907198 0
0.866249 -0.00924983 0
0.866756 -0.00939905 0
0.867879 -0.00952341 0
0.869619 -0.00961415 0
0.871964 -0.00968165 0
0.874908 -0.00971096 0
0.878432 -0.00971874 0
0.882522 -0.0096842 0
0.887153 -0.00962985 0
0.892305 -0.00952953 0
0.89795 -0.00941114 0
0.904062 -0.00924374 0
0.910611 -0.0090601 0
0.917568 -0.00882517 0
0.924898 -0.00857607 0
0.932573 -0.00827434 0
0.940556 -0.00796086 0
0.948816 -0.00759448 0
0.957315 -0.00721933 0
0.966022 -0.00679211 0
0.9749 -0.00635973 0
0.983915 -0.00587725 0
0.993032 -0.00539388 0
1.00222 -0.00486346 0
1.01143 -0.00433703 0
1.02065 -0.00376752 0
1.02984 -0.00320743 0
1.03896 -0.00260892 0
1.04798 -0.00202565 0
1.05688 -0.00140912 0
1.06561 -0.000813832 0
1.07416 -0.000190619 0
1.0825 0.0004053 0
1.0906 0.00102389 0
1.09842 0.0016093 0
1.10596 0.00221247 0
1.11319 0.00277689 0
1.12008 0.00335475 0
1.12662 0.00388873 0
1.13278 0.00443259 0
1.13856 0.00492801 0
1.14393 0.00543069 0
1.14888 0.00588094 0
1.15341 0.00633689 0
1.15749 0.00673703 0
1.16113 0.00714242 0
1.16432 0.0074892 0
1.16705 0.00784194 0
1.16933 0.00813379 0
1.17114 0.0084334 0
1.1725 0.00867028 0
1.17342 0.00891778 0
1.17388 0.00910104 0
1.17391 0.00929871 0
1.17351 0.00943085 0
1.1727 0.00958197 0
1.17148 0.00966635 0
1.16987 0.00977491 0
1.16789 0.00981552 0
1.16556 0.0098859 0
1.16289 0.00988703 0
1.1599 0.00992376 0
1.15661 0.00988977 0
1.15304 0.00989723 0
1.14921 0.00983234 0
1.14515 0.0098146 0
1.14086 0.00972271 0
1.13639 0.00968338 0
1.13173 0.009568 0
1.12692 0.00951015 0
1.12198 0.00937435 0
1.11691 0.00930056 0
1.11175 0.00914699 0
1.1065 0.00905934 0
1.10119 0.00889031 0
1.09583 0.00879052 0
1.09043 0.00860805 0
1.08502 0.00849757 0
1.0796 0.00830353 0
1.07418 0.00818366 0
1.06878 0.00797984 0
1.06341 0.00785184 0
1.05808 0.00764002 0
1.05279 0.00750522 0
1.04756 0.00728725 0
1.04239 0.00714707 0
1.0373 0.00692489 0
1.03228 0.00678093 0
1.02734 0.00655654 0
1.02249 0.00641054 0
1.01772 0.00618603 0
1.01306 0.00603984 0
1.00849 0.00581732 0
1.00403 0.00567287 0
0.99967 0.00545441 0
0.995417 0.00531366 0
0.991272 0.00510123 0
0.987239 0.00496606 0
0.983317 0.0047615 0
0.979509 0.00463366 0
0.975815 0.00443857 0
0.972237 0.00431961 0
0.968776 0.00413535 0
0.965432 0.00402653 0
0.962207 0.00385417 0
0.959102 0.00375645 0
0.956118 0.00359671 0
0.953256 0.00351068 0
0.950518 0.00336398 0
0.947905 0.00328986 0
0.945418 0.00315625 0
0.943059 0.0030939 0
0.94083 0.00297315 0
0.938732 0.00292204 0
0.936768 0.00281363 0
0.934939 0.0027729 0
0.933247 0.00267605 0
0.931693 0.00264457 0
0.930281 0.00255829 0
0.929009 0.00253467 0
0.927882 0.00245786 0
0.926899 0.00244054 0
0.926063 0.00237196 0
0.925371 0.00235927 0
0.924829 0.00229766 0
0.924431 0.00228792 0
0.924182 0.00223202 0
0.924076 0.00222354 0
0.924117 0.00217214 0
0.924298 0.00216336 0
0.924623 0.00211535 0
0.925083 0.00210484 0
0.92568 0.00205922 0
0.926405 0.00204575 0
0.927261 0.00200166 0
0.928235 0.00198424 0
0.929331 0.00194098 0
0.930534 0.00191885 0
0.931847 0.00187588 0
0.933256 0.00184854 0
0.934762 0.00180547 0
0.93635 0.00177269 0
0.938022 0.00172928 0
0.939761 0.00169107 0
0.941568 0.00164719 0
0.943428 0.0016038 0
0.94534 0.00155947 0
0.947289 0.00151133 0
0.949275 0.00146666 0
0.951284 0.00141439 0
0.953312 0.00136957 0
0.955348 0.00131393 0
0.95739 0.00126921 0
0.959425 0.00121105 0
0.961451 0.00116677 0
0.963458 0.00110704 0
0.965443 0.00106357 0
0.967399 0.00100336 0
0.969321 0.000961213 0
0.971206 0.000901939 0
0.973048 0.000862052 0
0.974843 0.000806193 0
0.97658 0.000770733 0
0.978235 0.000723973 0
0.97973 0.000698676 0
0.980836 0.000675492 0
0.996778 -0.000103996 0
0.993752 -0.000242574 0
0.990822 -0.000414636 0
0.98791 -0.000616123 0
0.984949 -0.000849754 0
0.981886 -0.00110978 0
0.978677 -0.00140287 0
0.975289 -0.00172044 0
0.971693 -0.00207309 0
0.967872 -0.00244854 0
0.963812 -0.00286107 0
0.95951 -0.0032942 0
0.954967 -0.00376544 0
0.950194 -0.00425393 0
0.945205 -0.00477982 0
0.940025 -0.00531809 0
0.934683 -0.00589081 0
0.929217 -0.00646947 0
0.923667 -0.00707721 0
0.918083 -0.00768313 0
0.912515 -0.00831058 0
0.907018 -0.00892768 0
0.90165 -0.00955707 0
0.896466 -0.0101675 0
0.891528 -0.0107801 0
0.886887 -0.011366 0
0.882602 -0.0119435 0
0.878717 -0.0124878 0
0.875285 -0.0130138 0
0.872339 -0.0135016 0
0.869922 -0.013962 0
0.868055 -0.014381 0
0.866772 -0.0147644 0
0.866082 -0.0151048 0
0.866006 -0.0154021 0
0.866542 -0.0156559 0
0.867701 -0.0158603 0
0.869472 -0.0160212 0
0.871855 -0.0161268 0
0.874832 -0.0161895 0
0.878394 -0.0161917 0
0.882517 -0.0161518 0
0.887187 -0.0160466 0
0.892373 -0.0159002 0
0.898056 -0.0156846 0
0.904202 -0.0154292 0
0.910788 -0.0151015 0
0.917778 -0.0147356 0
0.925145 -0.0142957 0
0.932851 -0.0138201 0
0.940867 -0.0132702 0
0.949155 -0.0126881 0
0.957684 -0.012033 0
0.966416 -0.0113504 0
0.975319 -0.0105981 0
0.984354 -0.00982411 0
0.99349 -0.00898521 0
1.00269 -0.00813194 0
1.01192 -0.00722013 0
1.02115 -0.00630225 0
1.03034 -0.00533351 0
1.03946 -0.00436788 0
1.04848 -0.00335999 0
1.05737 -0.00236493 0
1.0661 -0.00133672 0
1.07463 -0.000331272 0
1.08295 0.000698158 0
1.09103 0.00169504 0
1.09883 0.00270708 0
1.10634 0.00367724 0
1.11354 0.00465448 0
1.1204 0.00558124 0
1.1269 0.00650809 0
1.13303 0.00737681 0
1.13876 0.00823997 0
1.1441 0.00903844 0
1.14901 0.00982724 0
1.15349 0.010546 0
1.15753 0.0112526 0
1.16113 0.0118849 0
1.16427 0.0125044 0
1.16696 0.0130466 0
1.16919 0.0135769 0
1.17096 0.0140277 0
1.17228 0.0144692 0
1.17315 0.0148301 0
1.17358 0.0151857 0
1.17357 0.0154601 0
1.17314 0.0157344 0
1.17229 0.0159274 0
1.17104 0.0161264 0
1.1694 0.0162444 0
1.16739 0.0163751 0
1.16503 0.0164251 0
1.16234 0.0164951 0
1.15933 0.0164844 0
1.15602 0.016501 0
1.15243 0.0164368 0
1.1486 0.016407 0
1.14452 0.0162961 0
1.14023 0.0162265 0
1.13574 0.0160749 0
1.13109 0.015971 0
1.12627 0.0157842 0
1.12133 0.0156507 0
1.11626 0.0154333 0
1.1111 0.0152742 0
1.10586 0.0150301 0
1.10055 0.0148486 0
1.0952 0.0145813 0
1.08981 0.0143802 0
1.0844 0.0140927 0
1.07899 0.0138743 0
1.07358 0.0135695 0
1.0682 0.0133361 0
1.06284 0.0130167 0
1.05752 0.0127707 0
1.05224 0.0124396 0
1.04703 0.0121834 0
1.04188 0.0118435 0
1.03679 0.0115797 0
1.03179 0.0112343 0
1.02686 0.0109659 0
1.02203 0.0106182 0
1.01728 0.0103482 0
1.01263 0.0100017 0
1.00808 0.00973328 0
1.00364 0.00939142 0
0.999292 0.00912799 0
0.995055 0.0087941 0
0.990927 0.00853886 0
0.986909 0.00821613 0
0.983003 0.00797212 0
0.97921 0.00766343 0
0.975532 0.0074334 0
0.971968 0.00714125 0
0.968522 0.00692754 0
0.965193 0.00665397 0
0.961982 0.00645842 0
0.958891 0.00620495 0
0.95592 0.00602883 0
0.953071 0.00579641 0
0.950346 0.00564042 0
0.947744 0.00542943 0
0.945269 0.00529364 0
0.942921 0.00510391 0
0.940702 0.00498779 0
0.938615 0.00481862 0
0.93666 0.00472107 0
0.93484 0.00457131 0
0.933155 0.00449075 0
0.93161 0.00435884 0
0.930203 0.00429323 0
0.92894 0.0041773 0
0.927817 0.00412432 0
0.926841 0.00402227 0
0.926007 0.00397935 0
0.925322 0.00388896 0
0.92478 0.00385344 0
0.924388 0.00377245 0
0.924138 0.00374164 0
0.924038 0.00366785 0
0.924076 0.0036392 0
0.924262 0.00357051 0
0.924583 0.00354164 0
0.925047 0.00347619 0
0.92564 0.003445 0
0.926369 0.00338112 0
0.927218 0.00334584 0
0.928197 0.00328218 0
0.929285 0.00324139 0
0.930492 0.00317687 0
0.931799 0.00312957 0
0.933211 0.00306339 0
0.93471 0.00300898 0
0.936301 0.00294064 0
0.937965 0.00287888 0
0.939708 0.00280816 0
0.941508 0.00273918 0
0.943371 0.0026661 0
0.945277 0.00259035 0
0.947229 0.00251514 0
0.949209 0.00243337 0
0.95122 0.00235643 0
0.953244 0.00226962 0
0.955282 0.00219151 0
0.95732 0.00210083 0
0.959357 0.00202221 0
0.96138 0.00192897 0
0.963389 0.00185064 0
0.965373 0.00175629 0
0.96733 0.00167919 0
0.969252 0.0015855 0
0.971138 0.00151098 0
0.972981 0.00142066 0
0.974777 0.00135139 0
0.976515 0.00127002 0
0.97817 0.00121256 0
0.979667 0.00115405 0
0.980773 0.00112569 0
0.99673 -0.000145129 0
0.993657 -0.000339551 0
0.990686 -0.00057859 0
0.987732 -0.000862334 0
0.984732 -0.00118568 0
0.981629 -0.00155301 0
0.978382 -0.00195731 0
0.974953 -0.00240711 0
0.97132 -0.00289226 0
0.967458 -0.00342507 0
0.963361 -0.00399143 0
0.959019 -0.00460691 0
0.954441 -0.0052529 0
0.94963 -0.00594762 0
0.944609 -0.00666785 0
0.939397 -0.00743367 0
0.934028 -0.00821769 0
0.928537 -0.00904105 0
0.922969 -0.00987303 0
0.917369 -0.0107351 0
0.911791 -0.0115945 0
0.90629 -0.0124722 0
0.900921 -0.0133352 0
0.895746 -0.0142032 0
0.890817 -0.0150446 0
0.886195 -0.0158771 0
0.881929 -0.0166724 0
0.878074 -0.0174454 0
0.874667 -0.0181722 0
0.871759 -0.0188645 0
0.869374 -0.0195039 0
0.867553 -0.0200977 0
0.866308 -0.020634 0
0.865667 -0.0211152 0
0.865633 -0.0215359 0
0.866222 -0.0218931 0
0.867426 -0.0221882 0
0.869252 -0.0224123 0
0.871682 -0.0225733 0
0.874716 -0.0226566 0
0.878328 -0.0226764 0
0.882509 -0.0226125 0
0.887228 -0.0224848 0
0.892473 -0.0222683 0
0.898206 -0.0219882 0
0.90441 -0.0216153 0
0.911046 -0.0211798 0
0.918092 -0.0206488 0
0.925507 -0.0200571 0
0.933265 -0.0193692 0
0.941327 -0.018624 0
0.949662 -0.0177839 0
0.958232 -0.0168917 0
0.967004 -0.0159082 0
0.975941 -0.0148799 0
0.985009 -0.0137663 0
0.994171 -0.0126169 0
1.00339 -0.0113906 0
1.01264 -0.0101392 0
1.02188 -0.00882136 0
1.03108 -0.00749066 0
1.0402 -0.00610529 0
1.04922 -0.00472037 0
1.0581 -0.00329359 0
1.06681 -0.00188108 0
1.07533 -0.000439851 0
1.08362 0.000973247 0
1.09166 0.00240215 0
1.09943 0.00378955 0
1.10691 0.00518064 0
1.11406 0.00651776 0
1.12087 0.00784774 0
1.12732 0.00911258 0
1.13339 0.0103611 0
1.13906 0.0115349 0
1.14433 0.0126853 0
1.14918 0.0137529 0
1.1536 0.0147922 0
1.15758 0.0157426 0
1.16111 0.016662 0
1.16418 0.0174882 0
1.1668 0.018283 0
1.16897 0.0189818 0
1.17068 0.0196509 0
1.17194 0.0202229 0
1.17275 0.0207689 0
1.17311 0.0212176 0
1.17305 0.021646 0
1.17256 0.0219778 0
1.17166 0.0222962 0
1.17036 0.0225194 0
1.16868 0.022737 0
1.16663 0.0228611 0
1.16423 0.0229881 0
1.1615 0.0230234 0
1.15846 0.0230704 0
1.15513 0.0230271 0
1.15152 0.0230041 0
1.14766 0.0228919 0
1.14357 0.0228084 0
1.13927 0.0226364 0
1.13477 0.0225007 0
1.13011 0.0222768 0
1.12529 0.0220961 0
1.12034 0.0218271 0
1.11528 0.0216076 0
1.11012 0.0212994 0
1.10489 0.0210459 0
1.09959 0.0207035 0
1.09424 0.0204203 0
1.08887 0.0200481 0
1.08347 0.0197388 0
1.07807 0.0193406 0
1.07269 0.0190085 0
1.06732 0.0185881 0
1.06198 0.0182365 0
1.05667 0.0177978 0
1.05142 0.01743 0
1.04623 0.0169769 0
1.0411 0.0165967 0
1.03604 0.0161334 0
1.03105 0.0157446 0
1.02615 0.0152757 0
1.02134 0.0148826 0
1.01662 0.0144127 0
1.01199 0.0140198 0
1.00747 0.0135537 0
1.00304 0.0131657 0
0.998723 0.0127081 0
0.994511 0.0123295 0
0.990406 0.0118851 0
0.986413 0.0115204 0
0.98253 0.0110934 0
0.978761 0.0107466 0
0.975105 0.0103408 0
0.971565 0.0100155 0
0.96814 0.0096341 0
0.964833 0.0093333 0
0.961644 0.00897877 0
0.958573 0.0087046 0
0.955623 0.00837871 0
0.952793 0.00813255 0
0.950087 0.00783622 0
0.947503 0.0076186 0
0.945046 0.00735198 0
0.942714 0.00716258 0
0.940512 0.00692504 0
0.938438 0.00676275 0
0.936498 0.00655293 0
0.93469 0.0064159 0
0.93302 0.00623185 0
0.931484 0.0061176 0
0.93009 0.00595683 0
0.928833 0.00586237 0
0.927722 0.00572203 0
0.92675 0.00564399 0
0.925927 0.00552095 0
0.925244 0.00545575 0
0.924712 0.00534678 0
0.924319 0.00529075 0
0.924078 0.00519263 0
0.923974 0.00514218 0
0.924021 0.00505182 0
0.924202 0.00500357 0
0.92453 0.0049181 0
0.924987 0.00486899 0
0.925586 0.00478588 0
0.926307 0.00473325 0
0.927163 0.00465032 0
0.928131 0.004592 0
0.929226 0.00450752 0
0.930422 0.00444183 0
0.931734 0.00435447 0
0.933136 0.0042803 0
0.934639 0.00418918 0
0.93622 0.00410592 0
0.937889 0.00401056 0
0.939621 0.00391811 0
0.941425 0.00381841 0
0.943279 0.00371714 0
0.945188 0.00361335 0
0.947132 0.00350402 0
0.949116 0.00339667 0
0.951119 0.0032804 0
0.953147 0.00317028 0
0.955179 0.00304846 0
0.95722 0.00293654 0
0.959252 0.00281079 0
0.961278 0.00269821 0
0.963284 0.00257032 0
0.96527 0.00245839 0
0.967226 0.00233043 0
0.969151 0.00222081 0
0.971036 0.00209556 0
0.972881 0.00199099 0
0.974678 0.00187346 0
0.976417 0.00177996 0
0.978074 0.00168185 0
0.979572 0.00161492 0
0.98068 0.00156635 0
0.996665 -0.00018639 0
0.993533 -0.000435079 0
0.990504 -0.000742987 0
0.987497 -0.00110481 0
0.984442 -0.00152231 0
0.981289 -0.00198946 0
0.977988 -0.00251254 0
0.974509 -0.00308323 0
0.970821 -0.00371185 0
0.96691 -0.00438661 0
0.962759 -0.00512122 0
0.958369 -0.00589956 0
0.953739 -0.00673801 0
0.948883 -0.00761568 0
0.943815 -0.00855079 0
0.938564 -0.00951773 0
0.933157 -0.0105358 0
0.927635 -0.0115752 0
0.92204 -0.0126555 0
0.91642 -0.013744 0
0.91083 -0.0148599 0
0.905321 -0.015969 0
0.899955 -0.0170895 0
0.894784 -0.0181877 0
0.889874 -0.0192803 0
0.88527 -0.0203358 0
0.881036 -0.0213688 0
0.877209 -0.0223516 0
0.873848 -0.0232961 0
0.870978 -0.0241798 0
0.868648 -0.025011 0
0.866873 -0.0257733 0
0.86569 -0.0264708 0
0.865102 -0.0270937 0
0.865135 -0.027641 0
0.865782 -0.0281095 0
0.867057 -0.0284932 0
0.868945 -0.0287952 0
0.87145 -0.0290039 0
0.874547 -0.0291287 0
0.878235 -0.0291527 0
0.882482 -0.029091 0
0.88728 -0.0289219 0
0.892591 -0.028666 0
0.898402 -0.0282971 0
0.904674 -0.027841 0
0.911385 -0.027268 0
0.918497 -0.0266088 0
0.925984 -0.0258309 0
0.933805 -0.0249696 0
0.941933 -0.0239902 0
0.950327 -0.0229324 0
0.958955 -0.0217603 0
0.967778 -0.0205175 0
0.976763 -0.0191671 0
0.985872 -0.0177562 0
0.995071 -0.0162475 0
1.00432 -0.0146912 0
1.01359 -0.0130497 0
1.02285 -0.0113756 0
1.03206 -0.00963111 0
1.04118 -0.00787066 0
1.05019 -0.0060561 0
1.05906 -0.00424332 0
1.06775 -0.00239357 0
1.07624 -0.000563632 0
1.08449 0.00128612 0
1.0925 0.00309841 0
1.10022 0.00491409 0
1.10763 0.00667564 0
1.11472 0.00842555 0
1.12147 0.0101062 0
1.12785 0.0117621 0
1.13384 0.0133356 0
1.13944 0.0148737 0
1.14463 0.0163184 0
1.14939 0.0177197 0
1.15372 0.019019 0
1.15761 0.0202699 0
1.16105 0.0214126 0
1.16404 0.0225046 0
1.16657 0.0234845 0
1.16865 0.0244144 0
1.17027 0.0252304 0
1.17145 0.0259995 0
1.17217 0.0266546 0
1.17246 0.0272684 0
1.17232 0.0277696 0
1.17176 0.0282368 0
1.17079 0.0285938 0
1.16943 0.0289256 0
1.16769 0.0291503 0
1.16559 0.0293593 0
1.16315 0.0294645 0
1.16037 0.0295642 0
1.15729 0.0295632 0
1.15392 0.029567 0
1.15028 0.0294727 0
1.1464 0.0293929 0
1.14229 0.0292174 0
1.13797 0.0290655 0
1.13346 0.0288194 0
1.12879 0.0286054 0
1.12396 0.0282981 0
1.11902 0.0280303 0
1.11395 0.0276699 0
1.1088 0.0273553 0
1.10357 0.0269484 0
1.09829 0.0265928 0
1.09296 0.0261453 0
1.0876 0.0257537 0
1.08222 0.0252706 0
1.07685 0.0248475 0
1.07148 0.0243336 0
1.06613 0.0238831 0
1.06082 0.0233433 0
1.05554 0.0228697 0
1.05032 0.0223088 0
1.04515 0.0218166 0
1.04005 0.0212398 0
1.03502 0.0207339 0
1.03007 0.0201468 0
1.0252 0.0196327 0
1.02042 0.0190411 0
1.01573 0.0185244 0