# vtk DataFile Version 3.0
Flow field at step 200
ASCII
DATASET STRUCTURED_GRID
DIMENSIONS 200 100 1
POINTS 20000 float
0.005 0.005 0
0.015 0.005 0
0.025 0.005 0
0.035 0.005 0
0.045 0.005 0
0.055 0.005 0
0.065 0.005 0
0.075 0.005 0
0.085 0.005 0
0.095 0.005 0
0.105 0.005 0
0.115 0.005 0
0.125 0.005 0
0.135 0.005 0
0.145 0.005 0
0.155 0.005 0
0.165 0.005 0
0.175 0.005 0
0.185 0.005 0
0.195 0.005 0
0.205 0.005 0
0.215 0.005 0
0.225 0.005 0
0.235 0.005 0
0.245 0.005 0
0.255 0.005 0
0.265 0.005 0
0.275 0.005 0
0.285 0.005 0
0.295 0.005 0
0.305 0.005 0
0.315 0.005 0
0.325 0.005 0
0.335 0.005 0
0.345 0.005 0
0.355 0.005 0
0.365 0.005 0
0.375 0.005 0
0.385 0.005 0
0.395 0.005 0
0.405 0.005 0
0.415 0.005 0
0.425 0.005 0
0.435 0.005 0
0.445 0.005 0
0.455 0.005 0
0.465 0.005 0
0.475 0.005 0
0.485 0.005 0
0.495 0.005 0
0.505 0.005 0
0.515 0.005 0
0.525 0.005 0
0.535 0.005 0
0.545 0.005 0
0.555 0.005 0
0.565 0.005 0
0.575 0.005 0
0.585 0.005 0
0.595 0.005 0
0.605 0.005 0
0.615 0.005 0
0.625 0.005 0
0.635 0.005 0
0.645 0.005 0
0.655 0.005 0
0.665 0.005 0
0.675 0.005 0
0.685 0.005 0
0.695 0.005 0
0.705 0.005 0
0.715 0.005 0
0.725 0.005 0
0.735 0.005 0
0.745 0.005 0
0.755 0.005 0
0.765 0.005 0
0.775 0.005 0
0.785 0.005 0
0.795 0.005 0
0.805 0.005 0
0.815 0.005 0
0.825 0.005 0
0.835 0.005 0
0.845 0.005 0
0.855 0.005 0
0.865 0.005 0
0.875 0.005 0
0.885 0.005 0
0.895 0.005 0
0.905 0.005 0
0.915 0.005 0
0.925 0.005 0
0.935 0.005 0
0.945 0.005 0
0.955 0.005 0
0.965 0.005 0
0.975 0.005 0
0.985 0.005 0
0.995 0.005 0
1.005 0.005 0
1.015 0.005 0
1.025 0.005 0
1.035 0.005 0
1.045 0.005 0
1.055 0.005 0
1.065 0.005 0
1.075 0.005 0
1.085 0.005 0
1.095 0.005 0
1.105 0.005 0
1.115 0.005 0
1.125 0.005 0
1.135 0.005 0
1.145 0.005 0
1.155 0.005 0
1.165 0.005 0
1.175 0.005 0
1.185 0.005 0
1.195 0.005 0
1.205 0.005 0
1.215 0.005 0
1.225 0.005 0
1.235 0.005 0
1.245 0.005 0
1.255 0.005 0
1.265 0.005 0
1.275 0.005 0
1.285 0.005 0
1.295 0.005 0
1.305 0.005 0
1.315 0.005 0
1.325 0.005 0
1.335 0.005 0
1.345 0.005 0
1.355 0.005 0
1.365 0.005 0
1.375 0.005 0
1.385 0.005 0
1.395 0.005 0
1.405 0.005 0
1.415 0.005 0
1.425 0.005 0
1.435 0.005 0
1.445 0.005 0
1.455 0.005 0
1.465 0.005 0
1.475 0.005 0
1.485 0.005 0
1.495 0.005 0
1.505 0.005 0
1.515 0.005 0
1.525 0.005 0
1.535 0.005 0
1.545 0.005 0
1.555 0.005 0
1.565 0.005 0
1.575 0.005 0
1.585 0.005 0
1.595 0.005 0
1.605 0.005 0
1.615 0.005 0
1.625 0.005 0
1.635 0.005 0
1.645 0.005 0
1.655 0.005 0
1.665 0.005 0
1.675 0.005 0
1.685 0.005 0
1.695 0.005 0
1.705 0.005 0
1.715 0.005 0
1.725 0.005 0
1.735 0.005 0
1.745 0.005 0
1.755 0.005 0
1.765 0.005 0
1.775 0.005 0
1.785 0.005 0
1.795 0.005 0
1.805 0.005 0
1.815 0.005 0
1.825 0.005 0
1.835 0.005 0
1.845 0.005 0
1.855 0.005 0
1.865 0.005 0
1.875 0.005 0
1.885 0.005 0
1.895 0.005 0
1.905 0.005 0
1.915 0.005 0
1.925 0.005 0
1.935 0.005 0
1.945 0.005 0
1.955 0.005 0
1.965 0.005 0
1.975 0.005 0
1.985 0.005 0
1.995 0.005 0
0.005 0.015 0
0.015 0.015 0
0.025 0.015 0
0.035 0.015 0
0.045 0.015 0
0.055 0.015 0
0.065 0.015 0
0.075 0.015 0
0.085 0.015 0
0.095 0.015 0
0.105 0.015 0
0.115 0.015 0
0.125 0.015 0
0.135 0.015 0
0.145 0.015 0
0.155 0.015 0
0.165 0.015 0
0.175 0.015 0
0.185 0.015 0
0.195 0.015 0
0.205 0.015 0
0.215 0.015 0
0.225 0.015 0
0.235 0.015 0
0.245 0.015 0
0.255 0.015 0
0.265 0.015 0
0.275 0.015 0
0.285 0.015 0
0.295 0.015 0
0.305 0.015 0
0.315 0.015 0
0.325 0.015 0
0.335 0.015 0
0.345 0.015 0
0.355 0.015 0
0.365 0.015 0
0.375 0.015 0
0.385 0.015 0
0.395 0.015 0
0.405 0.015 0
0.415 0.015 0
0.425 0.015 0
0.435 0.015 0
0.445 0.015 0
0.455 0.015 0
0.465 0.015 0
0.475 0.015 0
0.485 0.015 0
0.495 0.015 0
0.505 0.015 0
0.515 0.015 0
0.525 0.015 0
0.535 0.015 0
0.545 0.015 0
0.555 0.015 0
0.565 0.015 0
0.575 0.015 0
0.585 0.015 0
0.595 0.015 0
0.605 0.015 0
0.615 0.015 0
0.625 0.015 0
0.635 0.015 0
0.645 0.015 0
0.655 0.015 0
0.665 0.015 0
0.675 0.015 0
0.685 0.015 0
0.695 0.015 0
0.705 0.015 0
0.715 0.015 0
0.725 0.015 0
0.735 0.015 0
0.745 0.015 0
0.755 0.015 0
0.765 0.015 0
0.775 0.015 0
0.785 0.015 0
0.795 0.015 0
0.805 0.015 0
0.815 0.015 0
0.825 0.015 0
0.835 0.015 0
0.845 0.015 0
0.855 0.015 0
0.865 0.015 0
0.875 0.015 0
0.885 0.015 0
0.895 0.015 0
0.905 0.015 0
0.915 0.015 0
0.925 0.015 0
0.935 0.015 0
0.945 0.015 0
0.955 0.015 0
0.965 0.015 0
0.975 0.015 0
0.985 0.015 0
0.995 0.015 0
1.005 0.015 0
1.015 0.015 0
1.025 0.015 0
1.035 0.015 0
1.045 0.015 0
1.055 0.015 0
1.065 0.015 0
1.075 0.015 0
1.085 0.015 0
1.095 0.015 0
1.105 0.015 0
1.115 0.015 0
1.125 0.015 0
1.135 0.015 0
1.145 0.015 0
1.155 0.015 0
1.165 0.015 0
1.175 0.015 0
1.185 0.015 0
1.195 0.015 0
1.205 0.015 0
1.215 0.015 0
1.225 0.015 0
1.235 0.015 0
1.245 0.015 0
1.255 0.015 0
1.265 0.015 0
1.275 0.015 0
1.285 0.015 0
1.295 0.015 0
1.305 0.015 0
1.315 0.015 0
1.325 0.015 0
1.335 0.015 0
1.345 0.015 0
1.355 0.015 0
1.365 0.015 0
1.375 0.015 0
1.385 0.015 0
1.395 0.015 0
1.405 0.015 0
1.415 0.015 0
1.425 0.015 0
1.435 0.015 0
1.445 0.015 0
1.455 0.015 0
1.465 0.015 0
1.475 0.015 0
1.485 0.015 0
1.495 0.015 0
1.505 0.015 0
1.515 0.015 0
1.525 0.015 0
1.535 0.015 0
1.545 0.015 0
1.555 0.015 0
1.565 0.015 0
1.575 0.015 0
1.585 0.015 0
1.595 0.015 0
1.605 0.015 0
1.615 0.015 0
1.625 0.015 0
1.635 0.015 0
1.645 0.015 0
1.655 0.015 0
1.665 0.015 0
1.675 0.015 0
1.685 0.015 0
1.695 0.015 0
1.705 0.015 0
1.715 0.015 0
1.725 0.015 0
1.735 0.015 0
1.745 0.015 0
1.755 0.015 0
1.765 0.015 0
1.775 0.015 0
1.785 0.015 0
1.795 0.015 0
1.805 0.015 0
1.815 0.015 0
1.825 0.015 0
1.835 0.015 0
1.845 0.015 0
1.855 0.015 0
1.865 0.015 0
1.875 0.015 0
1.885 0.015 0
1.895 0.015 0
1.905 0.015 0
1.915 0.015 0
1.925 0.015 0
1.935 0.015 0
1.945 0.015 0
1.955 0.015 0
1.965 0.015 0
1.975 0.015 0
1.985 0.015 0
1.995 0.015 0
0.005 0.025 0
0.015 0.025 0
0.025 0.025 0
0.035 0.025 0
0.045 0.025 0
0.055 0.025 0
0.065 0.025 0
0.075 0.025 0
0.085 0.025 0
0.095 0.025 0
0.105 0.025 0
0.115 0.025 0
0.125 0.025 0
0.135 0.025 0
0.145 0.025 0
0.155 0.025 0
0.165 0.025 0
0.175 0.025 0
0.185 0.025 0
0.195 0.025 0
0.205 0.025 0
0.215 0.025 0
0.225 0.025 0
0.235 0.025 0
0.245 0.025 0
0.255 0.025 0
0.265 0.025 0
0.275 0.025 0
0.285 0.025 0
0.295 0.025 0
0.305 0.025 0
0.315 0.025 0
0.325 0.025 0
0.335 0.025 0
0.345 0.025 0
0.355 0.025 0
0.365 0.025 0
0.375 0.025 0
0.385 0.025 0
0.395 0.025 0
0.405 0.025 0
0.415 0.025 0
0.425 0.025 0
0.435 0.025 0
0.445 0.025 0
0.455 0.025 0
0.465 0.025 0
0.475 0.025 0
0.485 0.025 0
0.495 0.025 0
0.505 0.025 0
0.515 0.025 0
0.525 0.025 0
0.535 0.025 0
0.545 0.025 0
0.555 0.025 0
0.565 0.025 0
0.575 0.025 0
0.585 0.025 0
0.595 0.025 0
0.605 0.025 0
0.615 0.025 0
0.625 0.025 0
0.635 0.025 0
0.645 0.025 0
0.655 0.025 0
0.665 0.025 0
0.675 0.025 0
0.685 0.025 0
0.695 0.025 0
0.705 0.025 0
0.715 0.025 0
0.725 0.025 0
0.735 0.025 0
0.745 0.025 0
0.755 0.025 0
0.765 0.025 0
0.775 0.025 0
0.785 0.025 0
0.795 0.025 0
0.805 0.025 0
0.815 0.025 0
0.825 0.025 0
0.835 0.025 0
0.845 0.025 0
0.855 0.025 0
0.865 0.025 0
0.875 0.025 0
0.885 0.025 0
0.895 0.025 0
0.905 0.025 0
0.915 0.025 0
0.925 0.025 0
0.935 0.025 0
0.945 0.025 0
0.955 0.025 0
0.965 0.025 0
0.975 0.025 0
0.985 0.025 0
0.995 0.025 0
1.005 0.025 0
1.015 0.025 0
1.025 0.025 0
1.035 0.025 0
1.045 0.025 0
1.055 0.025 0
1.065 0.025 0
1.075 0.025 0
1.085 0.025 0
1.095 0.025 0
1.105 0.025 0
1.115 0.025 0
1.125 0.025 0
1.135 0.025 0
1.145 0.025 0
1.155 0.025 0
1.165 0.025 0
1.175 0.025 0
1.185 0.025 0
1.195 0.025 0
1.205 0.025 0
1.215 0.025 0
1.225 0.025 0
1.235 0.025 0
1.245 0.025 0
1.255 0.025 0
1.265 0.025 0
1.275 0.025 0
1.285 0.025 0
1.295 0.025 0
1.305 0.025 0
1.315 0.025 0
1.325 0.025 0
1.335 0.025 0
1.345 0.025 0
1.355 0.025 0
1.365 0.025 0
1.375 0.025 0
1.385 0.025 0
1.395 0.025 0
1.405 0.025 0
1.415 0.025 0
1.425 0.025 0
1.435 0.025 0
1.445 0.025 0
1.455 0.025 0
1.465 0.025 0
1.475 0.025 0
1.485 0.025 0
1.495 0.025 0
1.505 0.025 0
1.515 0.025 0
1.525 0.025 0
1.535 0.025 0
1.545 0.025 0
1.555 0.025 0
1.565 0.025 0
1.575 0.025 0
1.585 0.025 0
1.595 0.025 0
1.605 0.025 0
1.615 0.025 0
1.625 0.025 0
1.635 0.025 0
1.645 0.025 0
1.655 0.025 0
1.665 0.025 0
1.675 0.025 0
1.685 0.025 0
1.695 0.025 0
1.705 0.025 0
1.715 0.025 0
1.725 0.025 0
1.735 0.025 0
1.745 0.025 0
1.755 0.025 0
1.765 0.025 0
1.775 0.025 0
1.785 0.025 0
1.795 0.025 0
1.805 0.025 0
1.815 0.025 0
1.825 0.025 0
1.835 0.025 0
1.845 0.025 0
1.855 0.025 0
1.865 0.025 0
1.875 0.025 0
1.885 0.025 0
1.895 0.025 0
1.905 0.025 0
1.915 0.025 0
1.925 0.025 0
1.935 0.025 0
1.945 0.025 0
1.955 0.025 0
1.965 0.025 0
1.975 0.025 0
1.985 0.025 0
1.995 0.025 0
0.005 0.035 0
0.015 0.035 0
0.025 0.035 0
0.035 0.035 0
0.045 0.035 0
0.055 0.035 0
0.065 0.035 0
0.075 0.035 0
0.085 0.035 0
0.095 0.035 0
0.105 0.035 0
0.115 0.035 0
0.125 0.035 0
0.135 0.035 0
0.145 0.035 0
0.155 0.035 0
0.165 0.035 0
0.175 0.035 0
0.185 0.035 0
0.195 0.035 0
0.205 0.035 0
0.215 0.035 0
0.225 0.035 0
0.235 0.035 0
0.245 0.035 0
0.255 0.035 0
0.265 0.035 0
0.275 0.035 0
0.285 0.035 0
0.295 0.035 0
0.305 0.035 0
0.315 0.035 0
0.325 0.035 0
0.335 0.035 0
0.345 0.035 0
0.355 0.035 0
0.365 0.035 0
0.375 0.035 0
0.385 0.035 0
0.395 0.035 0
0.405 0.035 0
0.415 0.035 0
0.425 0.035 0
0.435 0.035 0
0.445 0.035 0
0.455 0.035 0
0.465 0.035 0
0.475 0.035 0
0.485 0.035 0
0.495 0.035 0
0.505 0.035 0
0.515 0.035 0
0.525 0.035 0
0.535 0.035 0
0.545 0.035 0
0.555 0.035 0
0.565 0.035 0
0.575 0.035 0
0.585 0.035 0
0.595 0.035 0
0.605 0.035 0
0.615 0.035 0
0.625 0.035 0
0.635 0.035 0
0.645 0.035 0
0.655 0.035 0
0.665 0.035 0
0.675 0.035 0
0.685 0.035 0
0.695 0.035 0
0.705 0.035 0
0.715 0.035 0
0.725 0.035 0
0.735 0.035 0
0.745 0.035 0
0.755 0.035 0
0.765 0.035 0
0.775 0.035 0
0.785 0.035 0
0.795 0.035 0
0.805 0.035 0
0.815 0.035 0
0.825 0.035 0
0.835 0.035 0
0.845 0.035 0
0.855 0.035 0
0.865 0.035 0
0.875 0.035 0
0.885 0.035 0
0.895 0.035 0
0.905 0.035 0
0.915 0.035 0
0.925 0.035 0
0.935 0.035 0
0.945 0.035 0
0.955 0.035 0
0.965 0.035 0
0.975 0.035 0
0.985 0.035 0
0.995 0.035 0
1.005 0.035 0
1.015 0.035 0
1.025 0.035 0
1.035 0.035 0
1.045 0.035 0
[...]
POINT_DATA 20000
VECTORS velocity float
1 -3.88432e-09 0
1 -8.61384e-09 0
1 -1.76568e-08 0
1 -2.6799e-08 0
1 -4.70314e-08 0
0.999999 -6.63024e-08 0
0.999999 -1.10723e-07 0
0.999999 -1.51827e-07 0
0.999998 -2.46323e-07 0
0.999997 -3.31896e-07 0
0.999996 -5.25697e-07 0
0.999995 -6.97705e-07 0
0.999992 -1.08042e-06 0
0.999989 -1.4133e-06 0
0.999985 -2.14092e-06 0
0.99998 -2.76076e-06 0
0.999972 -4.09275e-06 0
0.999963 -5.20305e-06 0
0.99995 -7.55126e-06 0
0.999935 -9.46435e-06 0
0.999914 -1.34515e-05 0
0.999889 -1.66217e-05 0
0.999858 -2.31426e-05 0
0.999819 -2.81937e-05 0
0.999772 -3.84661e-05 0
0.999715 -4.62003e-05 0
0.999648 -6.17858e-05 0
0.999569 -7.31592e-05 0
0.999476 -9.59298e-05 0
0.999371 -0.000111976 0
0.999251 -0.000144003 0
0.999117 -0.000165695 0
0.998968 -0.000209039 0
0.998807 -0.000237083 0
0.998633 -0.000293496 0
0.99845 -0.000328078 0
0.998259 -0.000398634 0
0.998067 -0.00043915 0
0.997873 -0.000523862 0
0.997688 -0.000568696 0
0.997511 -0.0006662 0
0.997354 -0.000712609 0
0.997217 -0.000819997 0
0.997112 -0.000864159 0
0.99704 -0.000977025 0
0.997012 -0.00101428 0
0.997026 -0.00112702 0
0.997093 -0.0011523 0
0.99721 -0.00125859 0
0.997383 -0.00126696 0
0.997609 -0.00136049 0
0.997891 -0.00134771 0
0.998223 -0.0014228 0
0.998602 -0.00138587 0
0.999023 -0.00143814 0
0.999479 -0.00137567 0
0.999962 -0.0014025 0
1.00046 -0.00131483 0
1.00097 -0.00131561 0
1.00148 -0.00120482 0
1.00198 -0.00118093 0
1.00246 -0.00105061 0
1.00291 -0.00100525 0
1.00333 -0.000860118 0
1.00369 -0.000797946 0
1.00401 -0.000643434 0
1.00426 -0.000570095 0
1.00446 -0.000411883 0
1.00459 -0.000333521 0
1.00465 -0.000177118 0
1.00465 -9.98798e-05 0
1.00458 4.97314e-05 0
1.00445 0.000120138 0
1.00426 0.000258772 0
1.00403 0.000317443 0
1.00374 0.00044188 0
1.00342 0.000484991 0
1.00306 0.000593055 0
1.00268 0.000618034 0
1.00229 0.000708584 0
1.00189 0.000714181 0
1.00148 0.000787039 0
1.00108 0.000773309 0
1.0007 0.000829124 0
1.00033 0.000797316 0
0.999993 0.00083741 0
0.999681 0.000789789 0
0.9994 0.000815976 0
0.999155 0.000755588 0
0.998945 0.000769995 0
0.998773 0.000700395 0
0.998636 0.000705293 0
0.998535 0.000630255 0
0.998468 0.000627913 0
0.998433 0.000551145 0
0.998425 0.000543702 0
0.998444 0.00046859 0
0.998484 0.00045796 0
0.998544 0.000387355 0
0.998617 0.000375158 0
0.998704 0.000311233 0
0.998797 0.000298757 0
0.998898 0.000242932 0
0.998998 0.000231124 0
0.999101 0.000184074 0
0.999199 0.000173555 0
0.999296 0.000135279 0
0.999385 0.000126382 0
0.99947 9.63338e-05 0
0.999546 8.91542e-05 0
0.999616 6.64029e-05 0
0.999678 6.08612e-05 0
0.999733 4.42574e-05 0
0.99978 4.01605e-05 0
0.999821 2.84901e-05 0
0.999856 2.55875e-05 0
0.999885 1.7694e-05 0
0.999909 1.57231e-05 0
0.999929 1.059e-05 0
0.999945 9.30767e-06 0
0.999958 6.10122e-06 0
0.999968 5.30213e-06 0
0.999976 3.37995e-06 0
0.999982 2.90327e-06 0
0.999987 1.79846e-06 0
0.99999 1.52642e-06 0
0.999993 9.18153e-07 0
0.999995 7.69734e-07 0
0.999997 4.49248e-07 0
0.999998 3.71893e-07 0
0.999998 2.1045e-07 0
0.999999 1.71965e-07 0
0.999999 9.42841e-08 0
1 7.60224e-08 0
1 4.03546e-08 0
1 3.20964e-08 0
1 1.64835e-08 0
1 1.29275e-08 0
1 6.41858e-09 0
1 4.96189e-09 0
1 2.38008e-09 0
1 1.81291e-09 0
1 8.39517e-10 0
1 6.29815e-10 0
1 2.81363e-10 0
1 2.07811e-10 0
1 8.94971e-11 0
1 6.50478e-11 0
1 2.69865e-11 0
1 1.92925e-11 0
1 7.70473e-12 0
1 5.415e-12 0
1 2.08016e-12 0
1 1.43654e-12 0
1 5.30366e-13 0
1 3.59753e-13 0
1 1.27541e-13 0
1 8.49277e-14 0
1 2.88618e-14 0
1 1.88718e-14 0
1 6.15472e-15 0
1 3.95486e-15 0
1 1.22919e-15 0
1 7.79708e-16 0
1 2.5785e-16 0
1 1.30891e-16 0
1 5.29011e-17 0
1 1.70841e-17 0
1 2.22675e-18 0
1 5.19854e-18 0
1 1.2115e-19 0
1 4.60468e-18 0
1 5.81521e-21 0
1 4.6738e-18 0
1 2.72614e-22 0
1 4.78567e-18 0
1 1.20328e-23 0
1 4.908e-18 0
1 4.98719e-25 0
1 5.04032e-18 0
1 1.95851e-26 0
1 5.18395e-18 0
1 9.34998e-28 0
1 5.3406e-18 0
1 1.05537e-26 0
1 5.51236e-18 0
1 9.38348e-25 0
1 5.70182e-18 0
1 3.50234e-23 0
1 5.91217e-18 0
1 7.11569e-22 0
1 6.14615e-18 0
1 8.79426e-21 0
1 6.39443e-18 0
1 7.05906e-20 0
1 6.57135e-18 0
1 3.87348e-19 0
1 6.31455e-18 0
1 1.53086e-18 0
1 4.65105e-18 0
1 -1.11949e-08 0
1 -2.84141e-08 0
1 -5.09291e-08 0
1 -8.81939e-08 0
1 -1.35854e-07 0
0.999999 -2.17488e-07 0
0.999999 -3.20405e-07 0
0.999999 -4.96248e-07 0
0.999998 -7.14144e-07 0
0.999997 -1.08088e-06 0
0.999996 -1.52697e-06 0
0.999994 -2.26416e-06 0
0.999992 -3.14397e-06 0
0.999988 -4.57066e-06 0
0.999984 -6.24091e-06 0
0.999978 -8.8989e-06 0
0.99997 -1.19506e-05 0
0.999959 -1.6718e-05 0
0.999946 -2.20842e-05 0
0.999929 -3.03173e-05 0
0.999907 -3.93987e-05 0
0.999879 -5.30888e-05 0
0.999846 -6.78788e-05 0
0.999804 -8.97961e-05 0
0.999754 -0.000112971 0
0.999692 -0.00014675 0
0.999621 -0.000181677 0
0.999535 -0.000231783 0
0.999438 -0.000282384 0
0.999323 -0.000353886 0
0.999197 -0.000424307 0
0.999052 -0.000522413 0
0.998896 -0.000616461 0
0.998722 -0.000745787 0
0.998542 -0.00086615 0
0.998345 -0.00102977 0
0.998148 -0.00117711 0
0.997942 -0.00137552 0
0.997743 -0.00154756 0
0.997545 -0.00177772 0
0.997367 -0.00196862 0
0.997199 -0.00222334 0
0.997065 -0.00242342 0
0.996954 -0.00269131 0
0.996889 -0.00288745 0
0.99686 -0.00315354 0
0.996886 -0.00333013 0
0.996959 -0.0035771 0
0.997092 -0.0037176 0
0.997278 -0.00392761 0
0.997525 -0.00401636 0
0.997825 -0.00417297 0
0.99818 -0.00419699 0
0.998581 -0.00428708 0
0.999027 -0.00423762 0
0.999508 -0.0042528 0
1.00002 -0.00412633 0
1.00054 -0.00406385 0
1.00108 -0.00386237 0
1.00161 -0.00372528 0
1.00213 -0.00345609 0
1.00263 -0.00325282 0
1.00309 -0.00292767 0
1.00352 -0.00267105 0
1.0039 -0.00230497 0
1.00422 -0.00201099 0
1.00448 -0.00162093 0
1.00468 -0.00130729 0
1.00481 -0.000910742 0
1.00487 -0.000595413 0
1.00486 -0.000209115 0
1.00479 9.09227e-05 0
1.00465 0.000452044 0
1.00445 0.000721902 0
1.0042 0.00104553 0
1.0039 0.00127321 0
1.00356 0.00155014 0
1.00319 0.00172706 0
1.00279 0.00195145 0
1.00238 0.00207268 0
1.00196 0.00224204 0
1.00154 0.00230624 0
1.00112 0.00242117 0
1.00072 0.00243037 0
1.00034 0.00249417 0
0.999983 0.00245329 0
0.999657 0.00247144 0
0.999364 0.00238771 0
0.999107 0.00236726 0
0.998889 0.00224952 0
0.998707 0.00219849 0
0.998565 0.00205643 0
0.998457 0.00198319 0
0.998388 0.00182668 0
0.998348 0.00173938 0
0.998342 0.00157774 0
0.998358 0.00148385 0
0.998402 0.00132533 0
0.998461 0.00123125 0
0.998541 0.00108256 0
0.998628 0.0009934 0
0.998729 0.000859469 0
0.99883 0.000778885 0
0.998939 0.000662783 0
0.999043 0.000593019 0
0.999151 0.000496047 0
0.999249 0.000438053 0
0.999346 0.00035998 0
0.999433 0.000313632 0
0.999516 0.000253046 0
0.999588 0.000217417 0
0.999656 0.000172116 0
0.999712 0.000145771 0
0.999764 0.000113152 0
0.999807 9.44215e-05 0
0.999845 7.18188e-05 0
0.999875 5.90202e-05 0
0.999902 4.39602e-05 0
0.999923 3.55608e-05 0
0.99994 2.59203e-05 0
0.999954 2.063e-05 0
0.999965 1.4706e-05 0
0.999974 1.15107e-05 0
0.999981 8.0195e-06 0
0.999986 6.17024e-06 0
0.99999 4.19876e-06 0
0.999992 3.17416e-06 0
0.999995 2.10838e-06 0
0.999996 1.56536e-06 0
0.999997 1.01429e-06 0
0.999998 7.3925e-07 0
0.999999 4.66979e-07 0
0.999999 3.33964e-07 0
0.999999 2.05539e-07 0
1 1.44171e-07 0
1 8.63952e-08 0
1 5.94099e-08 0
1 3.46433e-08 0
1 2.33443e-08 0
1 1.32378e-08 0
1 8.73717e-09 0
1 4.81507e-09 0
1 3.11139e-09 0
1 1.66535e-09 0
1 1.05304e-09 0
1 5.47058e-10 0
1 3.3834e-10 0
1 1.70485e-10 0
1 1.03079e-10 0
1 5.03443e-11 0
1 2.97422e-11 0
1 1.40701e-11 0
1 8.11763e-12 0
1 3.71694e-12 0
1 2.09304e-12 0
1 9.26899e-13 0
1 5.09158e-13 0
1 2.17876e-13 0
1 1.16695e-13 0
1 4.81925e-14 0
1 2.51792e-14 0
1 1.0036e-14 0
1 5.11245e-15 0
1 1.96738e-15 0
1 9.75494e-16 0
1 3.67981e-16 0
1 1.71728e-16 0
1 4.52846e-17 0
1 1.89769e-17 0
1 6.58777e-18 0
1 9.44231e-18 0
1 4.67873e-18 0
1 9.07966e-18 0
1 4.67728e-18 0
1 9.25754e-18 0
1 4.78583e-18 0
1 9.47684e-18 0
1 4.90801e-18 0
1 9.71398e-18 0
1 5.04032e-18 0
1 9.9699e-18 0
1 5.18395e-18 0
1 1.02471e-17 0
1 5.3406e-18 0
1 1.05488e-17 0
1 5.51236e-18 0
1 1.08786e-17 0
1 5.70184e-18 0
1 1.12414e-17 0
1 5.91252e-18 0
1 1.16428e-17 0
1 6.15136e-18 0
1 1.20874e-17 0
1 6.44498e-18 0
1 1.25565e-17 0
1 6.90146e-18 0
1 1.28941e-17 0
1 7.83485e-18 0
1 1.24957e-17 0
1 9.86975e-18 0
1 -2.02262e-08 0
1 -4.84586e-08 0
1 -9.18994e-08 0
1 -1.50373e-07 0
0.999999 -2.44601e-07 0
0.999999 -3.70717e-07 0
0.999999 -5.75356e-07 0
0.999998 -8.4562e-07 0
0.999998 -1.27888e-06 0
0.999997 -1.8413e-06 0
0.999995 -2.72706e-06 0
0.999993 -3.85588e-06 0
0.99999 -5.60006e-06 0
0.999986 -7.78148e-06 0
0.999981 -1.10878e-05 0
0.999974 -1.51454e-05 0
0.999965 -2.11792e-05 0
0.999953 -2.84435e-05 0
0.999937 -3.90443e-05 0
0.999917 -5.15623e-05 0
0.999892 -6.94939e-05 0
0.999861 -9.02561e-05 0
0.999821 -0.000119458 0
0.999774 -0.000152598 0
0.999715 -0.000198377 0
0.999647 -0.000249269 0
0.999563 -0.000318339 0
0.999468 -0.000393499 0
0.999354 -0.000493752 0
0.999229 -0.000600443 0
0.999082 -0.000740357 0
0.998925 -0.000885798 0
0.998744 -0.00107341 0
0.998557 -0.0012636 0
0.998348 -0.00150506 0
0.998139 -0.00174327 0
0.997913 -0.00204115 0
0.997696 -0.00232635 0
0.99747 -0.00267795 0
0.997266 -0.00300336 0
0.997064 -0.00339945 0
0.996897 -0.00375178 0
0.996747 -0.00417606 0
0.996645 -0.00453563 0
0.996574 -0.00496532 0
0.996564 -0.00530723 0
0.996597 -0.00571476 0
0.996698 -0.00601111 0
0.996851 -0.00636678 0
0.997074 -0.00658964 0
0.997353 -0.00686488 0
0.997697 -0.00698941 0
0.998094 -0.00715996 0
0.998545 -0.00716735 0
0.999038 -0.00721607 0
0.999569 -0.00709562 0
1.00013 -0.00701431 0
1.0007 -0.00676461 0
1.00129 -0.00655472 0
1.00186 -0.00618364 0
1.00243 -0.00585597 0
1.00296 -0.0053797 0
1.00346 -0.00495307 0
1.00392 -0.00439442 0
1.00432 -0.00389376 0
1.00466 -0.00327996 0
1.00493 -0.00273397 0
1.00513 -0.00209434 0
1.00527 -0.0015331 0
1.00532 -0.000896788 0
1.0053 -0.000349521 0
1.00521 0.000256501 0
1.00505 0.00076336 0
1.00483 0.00131588 0
1.00455 0.0017602 0
1.00422 0.00224088 0
1.00385 0.00260588 0
1.00344 0.00300194 0
1.00301 0.00327673 0
1.00256 0.0035811 0
1.0021 0.00376082 0
1.00165 0.00397198 0
1.0012 0.00405747 0
1.00076 0.00417891 0
1.00035 0.0041761 0
0.999962 0.00421553 0
0.999608 0.00413457 0
0.999291 0.00410296 0
0.999012 0.00395713 0
0.998773 0.00386765 0
0.998576 0.00367222 0
0.998418 0.00353921 0
0.998304 0.00331023 0
0.998222 0.00314813 0
0.998182 0.00290132 0
0.998168 0.00272379 0
0.998191 0.00247356 0
0.99823 0.00229269 0
0.998301 0.00205131 0
0.998379 0.0018771 0
0.998481 0.00165418 0
0.998583 0.00149417 0
0.998701 0.00129637 0
0.998812 0.00115556 0
0.998934 0.000986617 0
0.999044 0.000867567 0
0.99916 0.000728539 0
0.999261 0.000631724 0
0.999363 0.000521453 0
0.99945 0.000445675 0
0.999535 0.000361392 0
0.999606 0.000304303 0
0.999674 0.000242251 0
0.999729 0.000200868 0
0.99978 0.000156889 0
0.99982 0.000128039 0
0.999857 9.80539e-05 0
0.999885 7.87237e-05 0
0.999911 5.90739e-05 0
0.99993 4.66355e-05 0
0.999947 3.42686e-05 0
0.999959 2.65882e-05 0
0.999969 1.91199e-05 0
0.999977 1.45728e-05 0
0.999983 1.02491e-05 0
0.999987 7.67024e-06 0
0.999991 5.27262e-06 0
0.999994 3.8727e-06 0
0.999996 2.6004e-06 0
0.999997 1.87368e-06 0
0.999998 1.22818e-06 0
0.999998 8.67743e-07 0
0.999999 5.54927e-07 0
0.999999 3.84276e-07 0
1 2.39606e-07 0
1 1.62552e-07 0
1 9.87616e-08 0
1 6.56109e-08 0
1 3.88191e-08 0
1 2.52426e-08 0
1 1.45346e-08 0
1 9.24691e-09 0
1 5.17832e-09 0
1 3.22175e-09 0
1 1.75358e-09 0
1 1.06644e-09 0
1 5.63796e-10 0
1 3.34993e-10 0
1 1.71902e-10 0
1 9.97444e-11 0
1 4.96465e-11 0
1 2.81173e-11 0
1 1.35648e-11 0
1 7.49471e-12 0
1 3.50198e-12 0
1 1.88657e-12 0
1 8.53104e-13 0
1 4.47877e-13 0
1 1.95817e-13 0
1 1.0016e-13 0
1 4.22902e-14 0
1 2.10955e-14 0
1 8.59367e-15 0
1 4.20397e-15 0
1 1.62997e-15 0
1 7.66668e-16 0
1 2.54088e-16 0
1 1.18884e-16 0
1 3.05115e-17 0
1 1.86593e-17 0
1 1.0083e-17 0
1 1.33216e-17 0
1 9.11221e-18 0
1 1.32854e-17 0
1 9.25902e-18 0
1 1.35573e-17 0
1 9.47691e-18 0
1 1.38627e-17 0
1 9.71399e-18 0
1 1.41903e-17 0
1 9.9699e-18 0
1 1.45421e-17 0
1 1.02471e-17 0
1 1.49211e-17 0
1 1.05488e-17 0
1 1.53309e-17 0
1 1.08786e-17 0
1 1.57758e-17 0
1 1.12415e-17 0
1 1.62611e-17 0
1 1.16442e-17 0
1 1.67931e-17 0
1 1.21032e-17 0
1 1.73758e-17 0
1 1.26763e-17 0
1 1.79716e-17 0
1 1.35324e-17 0
1 1.83178e-17 0
1 1.49953e-17 0
1 1.75059e-17 0
1 -2.9895e-08 0
1 -7.45394e-08 0
1 -1.35751e-07 0
1 -2.30841e-07 0
0.999999 -3.60952e-07 0
0.999999 -5.67529e-07 0
0.999999 -8.48038e-07 0
0.999998 -1.29067e-06 0
0.999997 -1.88269e-06 0
0.999996 -2.80187e-06 0
0.999994 -4.00972e-06 0
0.999991 -5.84999e-06 0
0.999988 -8.22409e-06 0
0.999983 -1.17717e-05 0
0.999976 -1.62638e-05 0
0.999968 -2.28474e-05 0
0.999957 -3.1029e-05 0
0.999942 -4.27913e-05 0
0.999923 -5.71346e-05 0
0.999898 -7.73665e-05 0
0.999868 -0.000101571 0
0.999829 -0.000135074 0
0.999784 -0.000174385 0
0.999725 -0.000227795 0
0.999657 -0.000289233 0
0.999572 -0.000371176 0
0.999477 -0.00046354 0
0.999359 -0.000584498 0
0.999231 -0.000718001 0
0.999076 -0.000889694 0
0.998911 -0.00107508 0
0.998719 -0.00130927 0
0.998518 -0.00155637 0
0.99829 -0.00186302 0
0.998061 -0.00217871 0
0.997808 -0.00256371 0
0.997564 -0.00294964 0
0.997303 -0.00341232 0
0.997065 -0.00386268 0
0.996821 -0.0043937 0
0.996615 -0.00489362 0
0.996419 -0.00547377 0
0.996276 -0.00599889 0
0.996159 -0.00659924 0
0.99611 -0.00711678 0
0.996101 -0.0077005 0
0.996171 -0.00817186 0
0.996293 -0.00869755 0
0.996498 -0.00908216 0
0.996761 -0.00950819 0
0.997104 -0.00976801 0
0.997505 -0.0100572 0
0.997974 -0.0101611 0
0.998494 -0.010285 0
0.999065 -0.0102124 0
0.999671 -0.0101543 0
1.00031 -0.00989704 0
1.00096 -0.00965372 0
1.00161 -0.00921732 0
1.00226 -0.00879905 0
1.00288 -0.00820144 0
1.00348 -0.00763065 0
1.00402 -0.00690033 0
1.00452 -0.00620918 0
1.00495 -0.00538233 0
1.00532 -0.00460963 0
1.00561 -0.0037269 0
1.00582 -0.00291472 0
1.00595 -0.00201792 0
1.006 -0.00120837 0
1.00596 -0.00033747 0
1.00585 0.000430226 0
1.00566 0.00123959 0
1.0054 0.00193144 0
1.00508 0.00264988 0
1.0047 0.00323886 0
1.00428 0.00384448 0
1.00382 0.00431155 0
1.00334 0.00479051 0
1.00283 0.00512505 0
1.00232 0.00547155 0
1.00181 0.00567116 0
1.00131 0.00588693 0
1.00082 0.00595675 0
1.00036 0.00605007 0
0.999928 0.00600167 0
0.999533 0.00598616 0
0.999177 0.00583619 0
0.998864 0.00572937 0
0.998597 0.00549798 0
0.998373 0.00531973 0
0.998198 0.00502897 0
0.998062 0.00480006 0
0.997976 0.00447225 0
0.997921 0.00421295 0
0.997912 0.00386923 0
0.997925 0.0035981 0
0.997979 0.00325723 0
0.998044 0.00299016 0
0.998143 0.00266755 0
0.998244 0.00241714 0
0.998371 0.00212429 0
0.998491 0.00189951 0
0.998629 0.00164384 0
0.998755 0.00145006 0
0.998892 0.00123506 0
0.999013 0.00107434 0
0.999139 0.000900096 0
0.999247 0.000771755 0
0.999356 0.000635638 0
0.999447 0.000536952 0
0.999536 0.00043449 0
0.999609 0.000361433 0
0.999679 0.000287152 0
0.999734 0.000235109 0
0.999786 0.000183279 0
0.999826 0.000147625 0
0.999863 0.000112846 0
0.99989 8.93744e-05 0
0.999916 6.6949e-05 0
0.999934 5.21118e-05 0
0.99995 3.82294e-05 0
0.999962 2.92312e-05 0
0.999972 2.09878e-05 0
0.999979 1.57568e-05 0
0.999985 1.10656e-05 0
0.999989 8.15325e-06 0
0.999992 5.59704e-06 0
0.999994 4.04546e-06 0
0.999996 2.713e-06 0
0.999997 1.92274e-06 0
0.999998 1.2589e-06 0
0.999999 8.74441e-07 0
0.999999 5.58626e-07 0
0.999999 3.80138e-07 0
1 2.36803e-07 0
1 1.57797e-07 0
1 9.57926e-08 0
1 6.24806e-08 0
1 3.69398e-08 0
1 2.35734e-08 0
1 1.35648e-08 0
1 8.4657e-09 0
1 4.73822e-09 0
1 2.89067e-09 0
1 1.57263e-09 0
1 9.37451e-10 0
1 4.95408e-10 0
1 2.88419e-10 0
1 1.47953e-10 0
1 8.40857e-11 0
1 4.18404e-11 0
1 2.3202e-11 0
1 1.11906e-11 0
1 6.05204e-12 0
1 2.82717e-12 0
1 1.49039e-12 0
1 6.73784e-13 0
1 3.46055e-13 0
1 1.51249e-13 0
1 7.56632e-14 0
1 3.19603e-14 0
1 1.55727e-14 0
1 6.32723e-15 0
1 3.02952e-15 0
1 1.12495e-15 0
1 5.08871e-16 0
1 1.71565e-16 0
1 7.06584e-17 0
1 2.4079e-17 0
1 1.96229e-17 0
1 1.3646e-17 0
1 1.69041e-17 0
1 1.33005e-17 0
1 1.70699e-17 0
1 1.35579e-17 0
1 1.74006e-17 0
1 1.38627e-17 0
1 1.77587e-17 0
1 1.41903e-17 0
1 1.81395e-17 0
1 1.45421e-17 0
1 1.85449e-17 0
1 1.49211e-17 0
1 1.89775e-17 0
1 1.53309e-17 0
1 1.94401e-17 0
1 1.57758e-17 0
1 1.99361e-17 0
1 1.62615e-17 0
1 2.04694e-17 0
1 1.67979e-17 0
1 2.10457e-17 0
1 1.74151e-17 0
1 2.16672e-17 0
1 1.82042e-17 0
1 2.22674e-17 0
1 1.93404e-17 0
1 2.24473e-17 0
1 2.09906e-17 0
1 -4.29213e-08 0
1 -1.03502e-07 0
1 -1.94598e-07 0
0.999999 -3.20143e-07 0
0.999999 -5.16005e-07 0
0.999999 -7.85781e-07 0
0.999998 -1.20838e-06 0
0.999997 -1.78381e-06 0
0.999996 -2.67361e-06 0
0.999994 -3.86537e-06 0
0.999992 -5.67513e-06 0
0.999989 -8.05589e-06 0
0.999984 -1.16018e-05 0
0.999978 -1.61815e-05 0
0.99997 -2.28704e-05 0
0.999959 -3.1351e-05 0
0.999945 -4.34981e-05 0
0.999927 -5.86147e-05 0
0.999902 -7.98523e-05 0
0.999873 -0.00010579 0
0.999834 -0.000141537 0
0.999788 -0.000184374 0
0.999728 -0.000242299 0
0.999659 -0.000310384 0
0.999571 -0.000400723 0
0.999472 -0.000504833 0
0.999349 -0.000640396 0
0.999214 -0.000793485 0
0.999049 -0.00098912 0
0.998872 -0.00120545 0
0.998662 -0.00147679 0
0.998443 -0.00177031 0
0.99819 -0.00213165 0
0.997934 -0.0025136 0
0.997647 -0.0029751 0
0.997367 -0.003451 0
0.997063 -0.00401543 0
0.996781 -0.00458202 0
0.996486 -0.00524169 0
0.996231 -0.00588437 0
0.995979 -0.00661899 0
0.995786 -0.00731058 0
0.995613 -0.00808674 0
0.995518 -0.00878805 0
0.995461 -0.00956086 0
0.995494 -0.0102234 0
0.995582 -0.0109402 0
0.995766 -0.0115107 0
0.996015 -0.0121162 0
0.996359 -0.0125427 0
0.996769 -0.0129854 0
0.997265 -0.0132224 0
0.997821 -0.0134603 0
0.998444 -0.0134748 0
0.999113 -0.01348 0
0.999824 -0.0132544 0
1.00056 -0.0130161 0
1.00131 -0.0125505 0
1.00206 -0.0120755 0
1.0028 -0.0113869 0
1.00351 -0.0106987 0
1.00417 -0.0098191 0
1.00479 -0.00895538 0
1.00534 -0.00792827 0
1.00582 -0.0069367 0
1.00622 -0.00581327 0
1.00653 -0.0047475 0
1.00675 -0.00358218 0
1.00688 -0.00249749 0
1.00691 -0.00134391 0
1.00685 -0.000293293 0
1.0067 0.000799259 0
1.00647 0.00176846 0
1.00616 0.00275783 0
1.00579 0.00360645 0
1.00535 0.0044596 0
1.00486 0.00515836 0
1.00433 0.00585248 0
1.00377 0.00638281 0
1.0032 0.00690566 0
1.00261 0.00725978 0
1.00202 0.00760926 0
1.00145 0.00778954 0
1.0009 0.00797271 0
1.00037 0.00799049 0
0.999877 0.00802214 0
0.999425 0.0078961 0
0.999018 0.00779697 0
0.998661 0.00755125 0
0.998352 0.00734613 0
0.998098 0.00700826 0
0.997891 0.00672402 0
0.997741 0.00632286 0
0.99763 0.00598658 0
0.997575 0.00555039 0
0.99755 0.00518765 0
0.997576 0.00474238 0
0.997621 0.00437588 0
0.997709 0.00394377 0
0.997805 0.00359228 0
0.997937 0.00319091 0
0.998064 0.00286864 0
0.99822 0.00251043 0
0.998363 0.00222681 0
0.998525 0.00191902 0
0.998669 0.0016789 0
0.998825 0.00142399 0
0.998958 0.00122823 0
0.999098 0.00102471 0
0.999215 0.000870958 0
0.999334 0.000714306 0
0.99943 0.000597991 0
0.999527 0.000481808 0
0.999602 0.000397083 0
0.999676 0.000314104 0
0.999733 0.000254717 0
0.999787 0.000197689 0
0.999827 0.000157662 0
0.999865 0.000119978 0
0.999893 9.40568e-05 0
0.999918 7.01355e-05 0
0.999936 5.40207e-05 0
0.999952 3.94463e-05 0
0.999963 2.9837e-05 0
0.999973 2.1322e-05 0
0.99998 1.58307e-05 0
0.999986 1.10644e-05 0
0.999989 8.05988e-06 0
0.999993 5.5061e-06 0
0.999995 3.93348e-06 0
0.999996 2.62491e-06 0
0.999997 1.83819e-06 0
0.999998 1.19752e-06 0
0.999999 8.21699e-07 0
0.999999 5.22272e-07 0
0.999999 3.50989e-07 0
1 2.17521e-07 0
1 1.43113e-07 0
1 8.64258e-08 0
1 5.56443e-08 0
1 3.27241e-08 0
1 2.0609e-08 0
1 1.17954e-08 0
1 7.26324e-09 0
1 4.04308e-09 0
1 2.43317e-09 0
1 1.31642e-09 0
1 7.73934e-10 0
1 4.06698e-10 0
1 2.33475e-10 0
1 1.19084e-10 0
1 6.67239e-11 0
1 3.30085e-11 0
1 1.80431e-11 0
1 8.65098e-12 0
1 4.61106e-12 0
1 2.14105e-12 0
1 1.11224e-12 0
1 4.99732e-13 0
1 2.52873e-13 0
1 1.09835e-13 0
1 5.41196e-14 0
1 2.27099e-14 0
1 1.09115e-14 0
1 4.36706e-15 0
1 2.07097e-15 0
1 7.507e-16 0
1 3.26246e-16 0
1 1.15487e-16 0
1 4.83466e-17 0
1 2.23866e-17 0
1 2.12583e-17 0
1 1.7061e-17 0
1 2.00468e-17 0
1 1.70767e-17 0
1 2.03105e-17 0
1 1.74009e-17 0
1 2.06615e-17 0