# vtk DataFile Version 3.0
Flow field at step 1550
ASCII
DATASET STRUCTURED_GRID
DIMENSIONS 200 100 1
POINTS 20000 float
0.005 0.005 0
0.015 0.005 0
0.025 0.005 0
0.035 0.005 0
0.045 0.005 0
0.055 0.005 0
0.065 0.005 0
0.075 0.005 0
0.085 0.005 0
0.095 0.005 0
0.105 0.005 0
0.115 0.005 0
0.125 0.005 0
0.135 0.005 0
0.145 0.005 0
0.155 0.005 0
0.165 0.005 0
0.175 0.005 0
0.185 0.005 0
0.195 0.005 0
0.205 0.005 0
0.215 0.005 0
0.225 0.005 0
0.235 0.005 0
0.245 0.005 0
0.255 0.005 0
0.265 0.005 0
0.275 0.005 0
0.285 0.005 0
0.295 0.005 0
0.305 0.005 0
0.315 0.005 0
0.325 0.005 0
0.335 0.005 0
0.345 0.005 0
0.355 0.005 0
0.365 0.005 0
0.375 0.005 0
0.385 0.005 0
0.395 0.005 0
0.405 0.005 0
0.415 0.005 0
0.425 0.005 0
0.435 0.005 0
0.445 0.005 0
0.455 0.005 0
0.465 0.005 0
0.475 0.005 0
0.485 0.005 0
0.495 0.005 0
0.505 0.005 0
0.515 0.005 0
0.525 0.005 0
0.535 0.005 0
0.545 0.005 0
0.555 0.005 0
0.565 0.005 0
0.575 0.005 0
0.585 0.005 0
0.595 0.005 0
0.605 0.005 0
0.615 0.005 0
0.625 0.005 0
0.635 0.005 0
0.645 0.005 0
0.655 0.005 0
0.665 0.005 0
0.675 0.005 0
0.685 0.005 0
0.695 0.005 0
0.705 0.005 0
0.715 0.005 0
0.725 0.005 0
0.735 0.005 0
0.745 0.005 0
0.755 0.005 0
0.765 0.005 0
0.775 0.005 0
0.785 0.005 0
0.795 0.005 0
0.805 0.005 0
0.815 0.005 0
0.825 0.005 0
0.835 0.005 0
0.845 0.005 0
0.855 0.005 0
0.865 0.005 0
0.875 0.005 0
0.885 0.005 0
0.895 0.005 0
0.905 0.005 0
0.915 0.005 0
0.925 0.005 0
0.935 0.005 0
0.945 0.005 0
0.955 0.005 0
0.965 0.005 0
0.975 0.005 0
0.985 0.005 0
0.995 0.005 0
1.005 0.005 0
1.015 0.005 0
1.025 0.005 0
1.035 0.005 0
1.045 0.005 0
1.055 0.005 0
1.065 0.005 0
1.075 0.005 0
1.085 0.005 0
1.095 0.005 0
1.105 0.005 0
1.115 0.005 0
1.125 0.005 0
1.135 0.005 0
1.145 0.005 0
1.155 0.005 0
1.165 0.005 0
1.175 0.005 0
1.185 0.005 0
1.195 0.005 0
1.205 0.005 0
1.215 0.005 0
1.225 0.005 0
1.235 0.005 0
1.245 0.005 0
1.255 0.005 0
1.265 0.005 0
1.275 0.005 0
1.285 0.005 0
1.295 0.005 0
1.305 0.005 0
1.315 0.005 0
1.325 0.005 0
1.335 0.005 0
1.345 0.005 0
1.355 0.005 0
1.365 0.005 0
1.375 0.005 0
1.385 0.005 0
1.395 0.005 0
1.405 0.005 0
1.415 0.005 0
1.425 0.005 0
1.435 0.005 0
1.445 0.005 0
1.455 0.005 0
1.465 0.005 0
1.475 0.005 0
1.485 0.005 0
1.495 0.005 0
1.505 0.005 0
1.515 0.005 0
1.525 0.005 0
1.535 0.005 0
1.545 0.005 0
1.555 0.005 0
1.565 0.005 0
1.575 0.005 0
1.585 0.005 0
1.595 0.005 0
1.605 0.005 0
1.615 0.005 0
1.625 0.005 0
1.635 0.005 0
1.645 0.005 0
1.655 0.005 0
1.665 0.005 0
1.675 0.005 0
1.685 0.005 0
1.695 0.005 0
1.705 0.005 0
1.715 0.005 0
1.725 0.005 0
1.735 0.005 0
1.745 0.005 0
1.755 0.005 0
1.765 0.005 0
1.775 0.005 0
1.785 0.005 0
1.795 0.005 0
1.805 0.005 0
1.815 0.005 0
1.825 0.005 0
1.835 0.005 0
1.845 0.005 0
1.855 0.005 0
1.865 0.005 0
1.875 0.005 0
1.885 0.005 0
1.895 0.005 0
1.905 0.005 0
1.915 0.005 0
1.925 0.005 0
1.935 0.005 0
1.945 0.005 0
1.955 0.005 0
1.965 0.005 0
1.975 0.005 0
1.985 0.005 0
1.995 0.005 0
0.005 0.015 0
0.015 0.015 0
0.025 0.015 0
0.035 0.015 0
0.045 0.015 0
0.055 0.015 0
0.065 0.015 0
0.075 0.015 0
0.085 0.015 0
0.095 0.015 0
0.105 0.015 0
0.115 0.015 0
0.125 0.015 0
0.135 0.015 0
0.145 0.015 0
0.155 0.015 0
0.165 0.015 0
0.175 0.015 0
0.185 0.015 0
0.195 0.015 0
0.205 0.015 0
0.215 0.015 0
0.225 0.015 0
0.235 0.015 0
0.245 0.015 0
0.255 0.015 0
0.265 0.015 0
0.275 0.015 0
0.285 0.015 0
0.295 0.015 0
0.305 0.015 0
0.315 0.015 0
0.325 0.015 0
0.335 0.015 0
0.345 0.015 0
0.355 0.015 0
0.365 0.015 0
0.375 0.015 0
0.385 0.015 0
0.395 0.015 0
0.405 0.015 0
0.415 0.015 0
0.425 0.015 0
0.435 0.015 0
0.445 0.015 0
0.455 0.015 0
0.465 0.015 0
0.475 0.015 0
0.485 0.015 0
0.495 0.015 0
0.505 0.015 0
0.515 0.015 0
0.525 0.015 0
0.535 0.015 0
0.545 0.015 0
0.555 0.015 0
0.565 0.015 0
0.575 0.015 0
0.585 0.015 0
0.595 0.015 0
0.605 0.015 0
0.615 0.015 0
0.625 0.015 0
0.635 0.015 0
0.645 0.015 0
0.655 0.015 0
0.665 0.015 0
0.675 0.015 0
0.685 0.015 0
0.695 0.015 0
0.705 0.015 0
0.715 0.015 0
0.725 0.015 0
0.735 0.015 0
0.745 0.015 0
0.755 0.015 0
0.765 0.015 0
0.775 0.015 0
0.785 0.015 0
0.795 0.015 0
0.805 0.015 0
0.815 0.015 0
0.825 0.015 0
0.835 0.015 0
0.845 0.015 0
0.855 0.015 0
0.865 0.015 0
0.875 0.015 0
0.885 0.015 0
0.895 0.015 0
0.905 0.015 0
0.915 0.015 0
0.925 0.015 0
0.935 0.015 0
0.945 0.015 0
0.955 0.015 0
0.965 0.015 0
0.975 0.015 0
0.985 0.015 0
0.995 0.015 0
1.005 0.015 0
1.015 0.015 0
1.025 0.015 0
1.035 0.015 0
1.045 0.015 0
1.055 0.015 0
1.065 0.015 0
1.075 0.015 0
1.085 0.015 0
1.095 0.015 0
1.105 0.015 0
1.115 0.015 0
1.125 0.015 0
1.135 0.015 0
1.145 0.015 0
1.155 0.015 0
1.165 0.015 0
1.175 0.015 0
1.185 0.015 0
1.195 0.015 0
1.205 0.015 0
1.215 0.015 0
1.225 0.015 0
1.235 0.015 0
1.245 0.015 0
1.255 0.015 0
1.265 0.015 0
1.275 0.015 0
1.285 0.015 0
1.295 0.015 0
1.305 0.015 0
1.315 0.015 0
1.325 0.015 0
1.335 0.015 0
1.345 0.015 0
1.355 0.015 0
1.365 0.015 0
1.375 0.015 0
1.385 0.015 0
1.395 0.015 0
1.405 0.015 0
1.415 0.015 0
1.425 0.015 0
1.435 0.015 0
1.445 0.015 0
1.455 0.015 0
1.465 0.015 0
1.475 0.015 0
1.485 0.015 0
1.495 0.015 0
1.505 0.015 0
1.515 0.015 0
1.525 0.015 0
1.535 0.015 0
1.545 0.015 0
1.555 0.015 0
1.565 0.015 0
1.575 0.015 0
1.585 0.015 0
1.595 0.015 0
1.605 0.015 0
1.615 0.015 0
1.625 0.015 0
1.635 0.015 0
1.645 0.015 0
1.655 0.015 0
1.665 0.015 0
1.675 0.015 0
1.685 0.015 0
1.695 0.015 0
1.705 0.015 0
1.715 0.015 0
1.725 0.015 0
1.735 0.015 0
1.745 0.015 0
1.755 0.015 0
1.765 0.015 0
1.775 0.015 0
1.785 0.015 0
1.795 0.015 0
1.805 0.015 0
1.815 0.015 0
1.825 0.015 0
1.835 0.015 0
1.845 0.015 0
1.855 0.015 0
1.865 0.015 0
1.875 0.015 0
1.885 0.015 0
1.895 0.015 0
1.905 0.015 0
1.915 0.015 0
1.925 0.015 0
1.935 0.015 0
1.945 0.015 0
1.955 0.015 0
1.965 0.015 0
1.975 0.015 0
1.985 0.015 0
1.995 0.015 0
0.005 0.025 0
0.015 0.025 0
0.025 0.025 0
0.035 0.025 0
0.045 0.025 0
0.055 0.025 0
0.065 0.025 0
0.075 0.025 0
0.085 0.025 0
0.095 0.025 0
0.105 0.025 0
0.115 0.025 0
0.125 0.025 0
0.135 0.025 0
0.145 0.025 0
0.155 0.025 0
0.165 0.025 0
0.175 0.025 0
0.185 0.025 0
0.195 0.025 0
0.205 0.025 0
0.215 0.025 0
0.225 0.025 0
0.235 0.025 0
0.245 0.025 0
0.255 0.025 0
0.265 0.025 0
0.275 0.025 0
0.285 0.025 0
0.295 0.025 0
0.305 0.025 0
0.315 0.025 0
0.325 0.025 0
0.335 0.025 0
0.345 0.025 0
0.355 0.025 0
0.365 0.025 0
0.375 0.025 0
0.385 0.025 0
0.395 0.025 0
0.405 0.025 0
0.415 0.025 0
0.425 0.025 0
0.435 0.025 0
0.445 0.025 0
0.455 0.025 0
0.465 0.025 0
0.475 0.025 0
0.485 0.025 0
0.495 0.025 0
0.505 0.025 0
0.515 0.025 0
0.525 0.025 0
0.535 0.025 0
0.545 0.025 0
0.555 0.025 0
0.565 0.025 0
0.575 0.025 0
0.585 0.025 0
0.595 0.025 0
0.605 0.025 0
0.615 0.025 0
0.625 0.025 0
0.635 0.025 0
0.645 0.025 0
0.655 0.025 0
0.665 0.025 0
0.675 0.025 0
0.685 0.025 0
0.695 0.025 0
0.705 0.025 0
0.715 0.025 0
0.725 0.025 0
0.735 0.025 0
0.745 0.025 0
0.755 0.025 0
0.765 0.025 0
0.775 0.025 0
0.785 0.025 0
0.795 0.025 0
0.805 0.025 0
0.815 0.025 0
0.825 0.025 0
0.835 0.025 0
0.845 0.025 0
0.855 0.025 0
0.865 0.025 0
0.875 0.025 0
0.885 0.025 0
0.895 0.025 0
0.905 0.025 0
0.915 0.025 0
0.925 0.025 0
0.935 0.025 0
0.945 0.025 0
0.955 0.025 0
0.965 0.025 0
0.975 0.025 0
0.985 0.025 0
0.995 0.025 0
1.005 0.025 0
1.015 0.025 0
1.025 0.025 0
1.035 0.025 0
1.045 0.025 0
1.055 0.025 0
1.065 0.025 0
1.075 0.025 0
1.085 0.025 0
1.095 0.025 0
1.105 0.025 0
1.115 0.025 0
1.125 0.025 0
1.135 0.025 0
1.145 0.025 0
1.155 0.025 0
1.165 0.025 0
1.175 0.025 0
1.185 0.025 0
1.195 0.025 0
1.205 0.025 0
1.215 0.025 0
1.225 0.025 0
1.235 0.025 0
1.245 0.025 0
1.255 0.025 0
1.265 0.025 0
1.275 0.025 0
1.285 0.025 0
1.295 0.025 0
1.305 0.025 0
1.315 0.025 0
1.325 0.025 0
1.335 0.025 0
1.345 0.025 0
1.355 0.025 0
1.365 0.025 0
1.375 0.025 0
1.385 0.025 0
1.395 0.025 0
1.405 0.025 0
1.415 0.025 0
1.425 0.025 0
1.435 0.025 0
1.445 0.025 0
1.455 0.025 0
1.465 0.025 0
1.475 0.025 0
1.485 0.025 0
1.495 0.025 0
1.505 0.025 0
1.515 0.025 0
1.525 0.025 0
1.535 0.025 0
1.545 0.025 0
1.555 0.025 0
1.565 0.025 0
1.575 0.025 0
1.585 0.025 0
1.595 0.025 0
1.605 0.025 0
1.615 0.025 0
1.625 0.025 0
1.635 0.025 0
1.645 0.025 0
1.655 0.025 0
1.665 0.025 0
1.675 0.025 0
1.685 0.025 0
1.695 0.025 0
1.705 0.025 0
1.715 0.025 0
1.725 0.025 0
1.735 0.025 0
1.745 0.025 0
1.755 0.025 0
1.765 0.025 0
1.775 0.025 0
1.785 0.025 0
1.795 0.025 0
1.805 0.025 0
1.815 0.025 0
1.825 0.025 0
1.835 0.025 0
1.845 0.025 0
1.855 0.025 0
1.865 0.025 0
1.875 0.025 0
1.885 0.025 0
1.895 0.025 0
1.905 0.025 0
1.915 0.025 0
1.925 0.025 0
1.935 0.025 0
1.945 0.025 0
1.955 0.025 0
1.965 0.025 0
1.975 0.025 0
1.985 0.025 0
1.995 0.025 0
0.005 0.035 0
0.015 0.035 0
0.025 0.035 0
0.035 0.035 0
0.045 0.035 0
0.055 0.035 0
0.065 0.035 0
0.075 0.035 0
0.085 0.035 0
0.095 0.035 0
0.105 0.035 0
0.115 0.035 0
0.125 0.035 0
0.135 0.035 0
0.145 0.035 0
0.155 0.035 0
0.165 0.035 0
0.175 0.035 0
0.185 0.035 0
0.195 0.035 0
0.205 0.035 0
0.215 0.035 0
0.225 0.035 0
0.235 0.035 0
0.245 0.035 0
0.255 0.035 0
0.265 0.035 0
0.275 0.035 0
0.285 0.035 0
0.295 0.035 0
0.305 0.035 0
0.315 0.035 0
0.325 0.035 0
0.335 0.035 0
0.345 0.035 0
0.355 0.035 0
0.365 0.035 0
0.375 0.035 0
0.385 0.035 0
0.395 0.035 0
0.405 0.035 0
0.415 0.035 0
0.425 0.035 0
0.435 0.035 0
0.445 0.035 0
0.455 0.035 0
0.465 0.035 0
0.475 0.035 0
0.485 0.035 0
0.495 0.035 0
0.505 0.035 0
0.515 0.035 0
0.525 0.035 0
0.535 0.035 0
0.545 0.035 0
0.555 0.035 0
0.565 0.035 0
0.575 0.035 0
0.585 0.035 0
0.595 0.035 0
0.605 0.035 0
0.615 0.035 0
0.625 0.035 0
0.635 0.035 0
0.645 0.035 0
0.655 0.035 0
0.665 0.035 0
0.675 0.035 0
0.685 0.035 0
0.695 0.035 0
0.705 0.035 0
0.715 0.035 0
0.725 0.035 0
0.735 0.035 0
0.745 0.035 0
0.755 0.035 0
0.765 0.035 0
0.775 0.035 0
0.785 0.035 0
0.795 0.035 0
0.805 0.035 0
0.815 0.035 0
0.825 0.035 0
0.835 0.035 0
0.845 0.035 0
0.855 0.035 0
0.865 0.035 0
0.875 0.035 0
0.885 0.035 0
0.895 0.035 0
0.905 0.035 0
0.915 0.035 0
0.925 0.035 0
0.935 0.035 0
0.945 0.035 0
0.955 0.035 0
0.965 0.035 0
0.975 0.035 0
0.985 0.035 0
0.995 0.035 0
1.005 0.035 0
1.015 0.035 0
1.025 0.035 0
1.035 0.035 0
1.045 0.035 0
[...]
POINT_DATA 20000
VECTORS velocity float
0.952214 -2.46745e-05 0
0.912072 -5.53865e-05 0
0.878761 -9.06005e-05 0
0.851395 -0.000129186 0
0.829106 -0.00017013 0
0.811093 -0.000212894 0
0.796646 -0.00025685 0
0.785152 -0.000301886 0
0.776095 -0.000347597 0
0.769044 -0.00039415 0
0.763648 -0.000441238 0
0.759617 -0.000489207 0
0.756718 -0.000537764 0
0.754764 -0.000587368 0
0.753604 -0.000637692 0
0.753119 -0.00068927 0
0.753215 -0.000741706 0
0.753816 -0.000795583 0
0.754863 -0.000850417 0
0.756311 -0.000906826 0
0.758125 -0.000964218 0
0.760277 -0.00102324 0
0.762746 -0.00108317 0
0.765519 -0.00114467 0
0.768583 -0.0012069 0
0.771931 -0.00127052 0
0.775558 -0.00133455 0
0.779462 -0.00139964 0
0.78364 -0.00146467 0
0.788093 -0.00153029 0
0.79282 -0.0015952 0
0.797823 -0.00166007 0
0.803104 -0.00172343 0
0.808662 -0.00178596 0
0.814499 -0.00184603 0
0.820615 -0.00190434 0
0.82701 -0.00195909 0
0.833684 -0.00201103 0
0.840634 -0.00205823 0
0.847859 -0.0021015 0
0.855353 -0.0021388 0
0.863112 -0.00217104 0
0.87113 -0.00219609 0
0.8794 -0.00221502 0
0.887913 -0.00222562 0
0.896658 -0.00222918 0
0.905624 -0.00222344 0
0.914798 -0.00220995 0
0.924166 -0.00218642 0
0.933713 -0.00215472 0
0.943422 -0.00211255 0
0.953274 -0.00206212 0
0.963252 -0.00200114 0
0.973335 -0.0019322 0
0.983503 -0.00185298 0
0.993733 -0.00176647 0
1.00401 -0.00167033 0
1.0143 -0.00156796 0
1.02458 -0.00145692 0
1.03484 -0.00134103 0
1.04505 -0.00121774 0
1.05518 -0.00109126 0
1.06521 -0.000958839 0
1.07512 -0.000825093 0
1.08489 -0.000687012 0
1.09449 -0.00054959 0
1.1039 -0.000409487 0
1.1131 -0.000272067 0
1.12206 -0.000133588 0
1.13078 2.23252e-07 0
1.13922 0.000133584 0
1.14737 0.000260403 0
1.15521 0.000385443 0
1.16272 0.000502242 0
1.16989 0.000616171 0
1.17671 0.000720386 0
1.18316 0.000820926 0
1.18922 0.000910541 0
1.19489 0.000995991 0
1.20016 0.0010696 0
1.20502 0.00113888 0
1.20946 0.00119571 0
1.21348 0.00124839 0
1.21708 0.00128831 0
1.22025 0.00132459 0
1.22299 0.00134808 0
1.22531 0.00136875 0
1.22721 0.00137688 0
1.2287 0.00138324 0
1.22978 0.00137755 0
1.23047 0.00137136 0
1.23078 0.00135379 0
1.23072 0.00133711 0
1.23031 0.00130987 0
1.22956 0.00128498 0
1.2285 0.00125041 0
1.22713 0.00121965 0
1.22549 0.00118012 0
1.22359 0.00114576 0
1.22146 0.0011035 0
1.21912 0.00106763 0
1.2166 0.00102468 0
1.21391 0.000989139 0
1.21107 0.000947227 0
1.20812 0.0009135 0
1.20507 0.000874014 0
1.20193 0.00084323 0
1.19875 0.000807193 0
1.19552 0.000780109 0
1.19226 0.000748192 0
1.189 0.00072522 0
1.18575 0.000697771 0
1.18252 0.000679023 0
1.17931 0.000656116 0
1.17615 0.000641454 0
1.17304 0.000622948 0
1.16998 0.000612046 0
1.16699 0.000597644 0
1.16406 0.000590046 0
1.16121 0.000579346 0
1.15842 0.00057452 0
1.15572 0.000567068 0
1.15308 0.00056445 0
1.15053 0.000559777 0
1.14804 0.000558809 0
1.14563 0.000556466 0
1.14329 0.000556619 0
1.14102 0.000556192 0
1.13882 0.000556989 0
1.13667 0.000558118 0
1.13459 0.00055914 0
1.13256 0.000561525 0
1.13059 0.00056242 0
1.12867 0.000565819 0
1.12679 0.000566301 0
1.12495 0.000570531 0
1.12316 0.000570375 0
1.1214 0.000575309 0
1.11967 0.000574348 0
1.11797 0.000579904 0
1.1163 0.000578022 0
1.11465 0.000584159 0
1.11303 0.000581284 0
1.11142 0.000587991 0
1.10983 0.000584091 0
1.10825 0.000591381 0
1.10668 0.000586451 0
1.10513 0.000594355 0
1.10358 0.000588414 0
1.10204 0.000596973 0
1.1005 0.00059006 0
1.09897 0.000599316 0
1.09744 0.000591482 0
1.09591 0.000601477 0
1.09438 0.000592781 0
1.09285 0.000603549 0
1.09132 0.000594054 0
1.08979 0.000605621 0
1.08826 0.00059539 0
1.08672 0.000607765 0
1.08518 0.000596858 0
1.08364 0.000610035 0
1.0821 0.000598508 0
1.08055 0.00061246 0
1.079 0.00060036 0
1.07745 0.000615039 0
1.0759 0.000602404 0
1.07434 0.000617738 0
1.07279 0.000604594 0
1.07123 0.000620486 0
1.06967 0.000606847 0
1.06811 0.000623172 0
1.06656 0.000609037 0
1.06501 0.000625642 0
1.06346 0.000610996 0
1.06192 0.000627698 0
1.06038 0.000612509 0
1.05885 0.000629093 0
1.05733 0.000613312 0
1.05582 0.000629531 0
1.05433 0.000613094 0
1.05285 0.000628664 0
1.05139 0.000611488 0
1.04994 0.000626096 0
1.04852 0.000608082 0
1.04713 0.000621381 0
1.04576 0.000602417 0
1.04443 0.000614036 0
1.04312 0.000594012 0
1.04186 0.000603567 0
1.04064 0.000582408 0
1.03946 0.00058954 0
1.03833 0.000567301 0
1.03726 0.000571745 0
1.03624 0.000548871 0
1.03529 0.000550613 0
1.03441 0.000528614 0
1.0336 0.000528216 0
1.03291 0.000511447 0
1.03243 0.000510602 0
0.952198 -7.39843e-05 0
0.912044 -0.000166018 0
0.878724 -0.00027165 0
0.851351 -0.000387223 0
0.829057 -0.000510095 0
0.81104 -0.000638131 0
0.79659 -0.000770095 0
0.785093 -0.000904883 0
0.776034 -0.00104218 0
0.768982 -0.00118146 0
0.763583 -0.00132296 0
0.75955 -0.00146643 0
0.756649 -0.00161241 0
0.754692 -0.00176075 0
0.75353 -0.00191211 0
0.753043 -0.00206632 0
0.753136 -0.00222411 0
0.753733 -0.00238518 0
0.754778 -0.00255025 0
0.756223 -0.00271888 0
0.758033 -0.00289173 0
0.760182 -0.00306815 0
0.762649 -0.00324873 0
0.765418 -0.00343257 0
0.76848 -0.00362016 0
0.771826 -0.00381032 0
0.775451 -0.00400341 0
0.779353 -0.00419796 0
0.78353 -0.00439417 0
0.787982 -0.00459025 0
0.792709 -0.00478624 0
0.797713 -0.00498003 0
0.802995 -0.00517149 0
0.808556 -0.0053582 0
0.814396 -0.00553989 0
0.820516 -0.00571383 0
0.826916 -0.00587966 0
0.833596 -0.0060344 0
0.840553 -0.00617765 0
0.847786 -0.00630625 0
0.855289 -0.00641986 0
0.863058 -0.0065152 0
0.871087 -0.00659211 0
0.879369 -0.00664729 0
0.887894 -0.00668089 0
0.896652 -0.0066897 0
0.905632 -0.0066743 0
0.91482 -0.00663168 0
0.924202 -0.00656296 0
0.933763 -0.00646541 0
0.943486 -0.00634081 0
0.953353 -0.00618678 0
0.963344 -0.00600581 0
0.97344 -0.00579591 0
0.98362 -0.00556034 0
0.993862 -0.00529745 0
1.00414 -0.00501128 0
1.01444 -0.00470048 0
1.02474 -0.00436985 0
1.035 -0.00401825 0
1.04521 -0.00365114 0
1.05534 -0.00326748 0
1.06538 -0.00287336 0
1.07529 -0.00246766 0
1.08505 -0.00205697 0
1.09465 -0.00163999 0
1.10405 -0.00122373 0
1.11324 -0.000806506 0
1.1222 -0.000395654 0
1.1309 1.10191e-05 0
1.13933 0.000405931 0
1.14746 0.000791934 0
1.15528 0.00116126 0
1.16278 0.00151756 0
1.16994 0.00185291 0
1.17673 0.00217185 0
1.18316 0.00246636 0
1.1892 0.00274197 0
1.19485 0.00299054 0
1.2001 0.00321865 0
1.20493 0.00341805 0
1.20935 0.00359641 0
1.21334 0.00374534 0
1.21692 0.00387363 0
1.22006 0.00397268 0
1.22278 0.00405241 0
1.22508 0.00410397 0
1.22696 0.00413834 0
1.22843 0.00414636 0
1.22949 0.00414004 0
1.23017 0.0041098 0
1.23046 0.00406857 0
1.23038 0.00400634 0
1.22995 0.0039368 0
1.22919 0.00384942 0
1.22811 0.00375856 0
1.22673 0.00365311 0
1.22508 0.00354791 0
1.22317 0.00343128 0
1.22103 0.00331837 0
1.21869 0.00319693 0
1.21615 0.00308227 0
1.21345 0.00296162 0
1.21061 0.00285024 0
1.20765 0.00273497 0
1.2046 0.00263087 0
1.20146 0.00252451 0
1.19827 0.00243058 0
1.19504 0.00233556 0
1.19178 0.00225363 0
1.18852 0.00217135 0
1.18526 0.00210226 0
1.18203 0.00203325 0
1.17882 0.00197704 0
1.17566 0.00192106 0
1.17254 0.0018771 0
1.16949 0.0018334 0
1.16649 0.0018006 0
1.16356 0.00176799 0
1.16071 0.00174496 0
1.15792 0.00172205 0
1.15521 0.00170722 0
1.15258 0.00169253 0
1.15002 0.00168432 0
1.14753 0.00167635 0
1.14512 0.00167322 0
1.14278 0.0016706 0
1.1405 0.00167113 0
1.1383 0.00167261 0
1.13615 0.00167554 0
1.13407 0.00168003 0
1.13204 0.00168431 0
1.13007 0.00169092 0
1.12814 0.00169566 0
1.12626 0.00170369 0
1.12442 0.0017082 0
1.12263 0.00171712 0
1.12087 0.00172087 0
1.11914 0.00173031 0
1.11744 0.00173296 0
1.11577 0.00174268 0
1.11412 0.00174399 0
1.11249 0.00175386 0
1.11088 0.00175373 0
1.10929 0.00176373 0
1.10771 0.00176212 0
1.10615 0.00177229 0
1.10459 0.00176926 0
1.10304 0.00177969 0
1.1015 0.00177533 0
1.09997 0.00178615 0
1.09844 0.0017806 0
1.09691 0.00179193 0
1.09538 0.00178534 0
1.09385 0.00179733 0
1.09232 0.00178986 0
1.0908 0.00180263 0
1.08927 0.00179442 0
1.08774 0.00180807 0
1.0862 0.00179927 0
1.08467 0.00181386 0
1.08313 0.00180456 0
1.08159 0.00182011 0
1.08004 0.0018104 0
1.0785 0.00182689 0
1.07695 0.0018168 0
1.0754 0.00183415 0
1.07384 0.00182368 0
1.07229 0.00184173 0
1.07074 0.00183082 0
1.06918 0.00184938 0
1.06763 0.00183791 0
1.06608 0.0018567 0
1.06453 0.0018445 0
1.06299 0.00186317 0
1.06144 0.00185002 0
1.05991 0.00186813 0
1.05839 0.00185374 0
1.05687 0.00187078 0
1.05537 0.00185478 0
1.05388 0.00187016 0
1.0524 0.00185212 0
1.05094 0.00186517 0
1.0495 0.0018446 0
1.04809 0.00185454 0
1.04669 0.00183088 0
1.04533 0.00183689 0
1.044 0.00180954 0
1.0427 0.00181075 0
1.04144 0.00177913 0
1.04022 0.00177471 0
1.03905 0.0017384 0
1.03793 0.00172776 0
1.03686 0.0016869 0
1.03584 0.00167015 0
1.03489 0.00162642 0
1.03401 0.0016055 0
1.03321 0.00156466 0
1.03252 0.00154603 0
1.03204 0.00152408 0
0.952167 -0.00012313 0
0.911989 -0.000276326 0
0.87865 -0.000452079 0
0.851264 -0.000644481 0
0.828959 -0.000848877 0
0.810934 -0.00106206 0
0.796478 -0.00128155 0
0.784976 -0.00150603 0
0.775912 -0.00173437 0
0.768856 -0.00196639 0
0.763453 -0.00220172 0
0.759416 -0.00244082 0
0.756511 -0.00268362 0
0.754549 -0.00293091 0
0.753382 -0.00318271 0
0.75289 -0.0034399 0
0.752977 -0.00370243 0
0.753569 -0.00397118 0
0.754607 -0.0042459 0
0.756046 -0.00452739 0
0.757851 -0.00481514 0
0.759993 -0.00510978 0
0.762454 -0.00541048 0
0.765218 -0.00571767 0
0.768274 -0.00603014 0
0.771615 -0.00634805 0
0.775236 -0.00666978 0
0.779135 -0.0069952 0
0.783309 -0.00732221 0
0.78776 -0.00765037 0
0.792488 -0.0079771 0
0.797493 -0.00830161 0
0.802777 -0.00862084 0
0.808342 -0.00893369 0
0.814189 -0.00923664 0
0.820317 -0.0095283 0
0.826728 -0.00980476 0
0.833419 -0.0100644 0
0.840391 -0.0103031 0
0.847639 -0.0105192 0
0.85516 -0.0107082 0
0.862949 -0.0108688 0
0.871 -0.0109963 0
0.879305 -0.0110897 0
0.887855 -0.0111446 0
0.896639 -0.0111604 0
0.905646 -0.0111332 0
0.914863 -0.011063 0
0.924274 -0.0109464 0
0.933863 -0.0107843 0
0.943615 -0.0105739 0
0.953509 -0.0103174 0
0.963528 -0.0100126 0
0.973649 -0.00966271 0
0.983853 -0.00926642 0
0.994118 -0.00882808 0
1.00442 -0.00834709 0
1.01474 -0.0078289 0
1.02504 -0.00727354 0
1.03532 -0.00668749 0
1.04554 -0.00607119 0
1.05568 -0.00543202 0
1.06571 -0.00477066 0
1.07562 -0.0040952 0
1.08538 -0.00340632 0
1.09496 -0.00271265 0
1.10435 -0.00201463 0
1.11353 -0.00132124 0
1.12246 -0.000632425 0
1.13114 4.2614e-05 0
1.13954 0.000704654 0
1.14764 0.00134444 0
1.15544 0.00196367 0
1.1629 0.00255314 0
1.17001 0.00311562 0
1.17677 0.00364207 0
1.18315 0.00413647 0
1.18915 0.00458997 0
1.19476 0.00500789 0
1.19996 0.00538158 0
1.20474 0.00571777 0
1.20912 0.006008 0
1.21306 0.00626041 0
1.21659 0.00646672 0
1.21969 0.0066365 0
1.22236 0.00676151 0
1.22462 0.0068527 0
1.22646 0.00690184 0
1.22788 0.00692114 0
1.22891 0.00690224 0
1.22954 0.00685849 0
1.2298 0.00678126 0
1.22969 0.00668489 0
1.22923 0.00656036 0
1.22843 0.00642278 0
1.22733 0.00626261 0
1.22593 0.00609553 0
1.22425 0.00591139 0
1.22232 0.0057262 0
1.22017 0.00552914 0
1.2178 0.00533634 0
1.21525 0.0051363 0
1.21254 0.00494505 0
1.20969 0.00475047 0
1.20672 0.00456828 0
1.20366 0.00438585 0
1.20051 0.00421843 0
1.19731 0.00405303 0
1.19408 0.00390429 0
1.19081 0.00375903 0
1.18755 0.00363116 0
1.18429 0.00350756 0
1.18105 0.00340128 0
1.17784 0.0032995 0
1.17467 0.0032143 0
1.17155 0.00313344 0
1.16849 0.00306791 0
1.16549 0.00300628 0
1.16256 0.00295834 0
1.1597 0.00291377 0
1.15691 0.00288097 0
1.1542 0.002851 0
1.15156 0.00283075 0
1.149 0.00281288 0
1.14651 0.00280261 0
1.14409 0.00279441 0
1.14175 0.00279169 0
1.13947 0.00279095 0
1.13726 0.00279358 0
1.13511 0.00279833 0
1.13302 0.00280443 0
1.13099 0.00281301 0
1.12901 0.00282099 0
1.12709 0.00283206 0
1.1252 0.00284065 0
1.12337 0.00285317 0
1.12157 0.00286139 0
1.1198 0.00287458 0
1.11807 0.00288173 0
1.11637 0.00289507 0
1.1147 0.00290069 0
1.11305 0.00291388 0
1.11142 0.0029177 0
1.10981 0.00293061 0
1.10822 0.00293254 0
1.10664 0.00294516 0
1.10508 0.00294522 0
1.10352 0.00295767 0
1.10198 0.00295601 0
1.10044 0.00296845 0
1.0989 0.00296525 0
1.09737 0.00297792 0
1.09584 0.00297342 0
1.09432 0.00298655 0
1.0928 0.002981 0
1.09127 0.0029948 0
1.08975 0.00298844 0
1.08822 0.00300312 0
1.08669 0.00299618 0
1.08517 0.00301189 0
1.08363 0.00300455 0
1.0821 0.00302138 0
1.08056 0.00301377 0
1.07903 0.00303174 0
1.07748 0.00302393 0
1.07594 0.00304299 0
1.0744 0.00303497 0
1.07285 0.00305495 0
1.0713 0.00304663 0
1.06976 0.00306729 0
1.06821 0.00305848 0
1.06666 0.00307946 0
1.06512 0.00306989 0
1.06357 0.0030907 0
1.06204 0.00307999 0
1.0605 0.00310005 0
1.05898 0.0030877 0
1.05746 0.00310629 0
1.05595 0.00309169 0
1.05446 0.00310795 0
1.05297 0.00309038 0
1.0515 0.00310331 0
1.05005 0.00308194 0
1.04862 0.00309042 0
1.04721 0.00306429 0
1.04583 0.00306707 0
1.04447 0.00303511 0
1.04315 0.00303086 0
1.04186 0.002992 0
1.04061 0.00297936 0
1.03939 0.00293262 0
1.03823 0.00291047 0
1.03711 0.00285536 0
1.03605 0.00282332 0
1.03504 0.00276085 0
1.0341 0.00272056 0
1.03322 0.0026557 0
1.03243 0.00261404 0
1.03175 0.00256194 0
1.03127 0.00253831 0
0.95212 -0.000172032 0
0.911906 -0.000386026 0
0.87854 -0.00063158 0
0.851133 -0.000900286 0
0.828813 -0.00118588 0
0.810776 -0.00148357 0
0.79631 -0.0017903 0
0.784801 -0.00210376 0
0.77573 -0.00242292 0
0.768668 -0.00274695 0
0.763259 -0.003076 0
0.759215 -0.00340996 0
0.756303 -0.00374961 0
0.754335 -0.00409511 0
0.753161 -0.00444751 0
0.75266 -0.00480699 0
0.752739 -0.00517461 0
0.753322 -0.0055504 0
0.754351 -0.00593533 0
0.755781 -0.00632912 0
0.757576 -0.00673255 0
0.759709 -0.00714496 0
0.762161 -0.00756681 0
0.764916 -0.00799702 0
0.767964 -0.00843567 0
0.771298 -0.00888114 0
0.774913 -0.00933311 0
0.778806 -0.00978935 0
0.782977 -0.0102491 0
0.787426 -0.0107094 0
0.792153 -0.011169 0
0.797161 -0.0116244 0
0.802449 -0.0120738 0
0.808021 -0.012513 0
0.813876 -0.0129398 0
0.820017 -0.0133494 0
0.826442 -0.0137391 0
0.833152 -0.0141038 0
0.840144 -0.0144406 0
0.847416 -0.0147439 0
0.854964 -0.0150109 0
0.862783 -0.0152359 0
0.870867 -0.0154163 0
0.879207 -0.0155466 0
0.887794 -0.0156248 0
0.896618 -0.0156457 0
0.905666 -0.0156081 0
0.914924 -0.0155075 0
0.924378 -0.0153439 0
0.934011 -0.0151137 0
0.943805 -0.0148181 0
0.953741 -0.0144546 0
0.9638 -0.014026 0
0.973961 -0.013531 0
0.984201 -0.0129737 0
0.994498 -0.0123541 0
1.00483 -0.0116779 0
1.01517 -0.0109461 0
1.0255 -0.0101657 0
1.03579 -0.00933865 0
1.04603 -0.00847325 0
1.05617 -0.00757186 0
1.06621 -0.00664395 0
1.07611 -0.00569208 0
1.08586 -0.00472647 0
1.09543 -0.00374965 0
1.1048 -0.00277229 0
1.11395 -0.00179655 0
1.12285 -0.000833321 0
1.13149 0.00011596 0
1.13985 0.0010404 0
1.14791 0.00193956 0
1.15565 0.00280275 0
1.16306 0.00363074 0
1.17012 0.00441324 0
1.17681 0.00515243 0
1.18313 0.00583848 0
1.18906 0.00647516 0
1.1946 0.00705318 0
1.19973 0.00757799 0
1.20445 0.00804082 0
1.20875 0.00844888 0
1.21263 0.0087939 0
1.21609 0.00908482 0
1.21912 0.00931381 0
1.22172 0.0094915 0
1.22391 0.00961037 0
1.22569 0.0096826 0
1.22705 0.00970086 0
1.22802 0.00967874 0
1.22859 0.00960889 0
1.2288 0.00950611 0
1.22863 0.00936282 0
1.22813 0.0091948 0
1.22729 0.00899408 0
1.22614 0.0087771 0
1.22471 0.00853532 0
1.223 0.00828558 0
1.22104 0.00801864 0
1.21886 0.00775146 0
1.21647 0.00747402 0
1.2139 0.00720311 0
1.21117 0.00692792 0
1.2083 0.00666488 0
1.20531 0.00640242 0
1.20224 0.00615643 0
1.19908 0.00591467 0
1.19587 0.00569234 0
1.19263 0.00547676 0
1.18936 0.00528228 0
1.18608 0.00509599 0
1.18282 0.00493132 0
1.17957 0.0047754 0
1.17636 0.00464063 0
1.17318 0.00451448 0
1.17006 0.00440823 0
1.16699 0.00430997 0
1.16399 0.00422977 0
1.16105 0.00415665 0
1.15819 0.00409936 0
1.1554 0.00404809 0
1.15268 0.00401019 0
1.15003 0.00397731 0
1.14746 0.00395521 0
1.14497 0.00393724 0
1.14255 0.00392747 0
1.1402 0.00392117 0
1.13792 0.00392054 0
1.1357 0.00392299 0
1.13355 0.00392868 0
1.13145 0.00393734 0
1.12942 0.00394695 0
1.12744 0.00395974 0
1.1255 0.00397131 0
1.12362 0.00398654 0
1.12177 0.00399853 0
1.11997 0.00401494 0
1.1182 0.00402621 0
1.11647 0.00404291 0
1.11477 0.00405266 0
1.1131 0.00406906 0
1.11144 0.0040768 0
1.10982 0.0040926 0
1.10821 0.0040981 0
1.10661 0.0041132 0
1.10504 0.00411642 0
1.10347 0.00413091 0
1.10192 0.00413197 0
1.10037 0.00414604 0
1.09883 0.00414517 0
1.0973 0.0041591 0
1.09578 0.00415661 0
1.09425 0.00417071 0
1.09273 0.00416693 0
1.09121 0.00418154 0
1.08969 0.00417681 0
1.08818 0.00419222 0
1.08665 0.00418687 0
1.08513 0.00420332 0
1.08361 0.00419761 0
1.08209 0.00421531 0
1.08056 0.00420945 0
1.07903 0.00422847 0
1.0775 0.00422258 0
1.07597 0.00424292 0
1.07443 0.00423701 0
1.0729 0.00425855 0
1.07136 0.00425254 0
1.06982 0.004275 0
1.06828 0.00426867 0
1.06675 0.00429165 0
1.06521 0.00428466 0
1.06368 0.00430761 0
1.06214 0.00429946 0
1.06062 0.00432166 0
1.05909 0.00431172 0
1.05758 0.00433228 0
1.05607 0.00431974 0
1.05458 0.00433759 0
1.05309 0.00432148 0
1.05162 0.00433538 0
1.05016 0.00431457 0
1.04872 0.00432308 0
1.0473 0.00429627 0
1.04591 0.00429778 0
1.04453 0.00426351 0
1.04319 0.00425624 0
1.04188 0.00421295 0
1.0406 0.00419507 0
1.03936 0.00414121 0
1.03816 0.004111 0
1.037 0.0040454 0
1.03589 0.00400173 0
1.03484 0.00392441 0
1.03384 0.00386796 0
1.03291 0.00378227 0
1.03204 0.00371845 0
1.03126 0.00363646 0
1.03058 0.00358251 0
1.03011 0.00353786 0
0.952058 -0.000220562 0
0.911796 -0.000494929 0
0.878393 -0.000809677 0
0.850958 -0.00115418 0
0.828618 -0.00152019 0
0.810565 -0.00190189 0
0.796087 -0.00229498 0
0.784567 -0.00269696 0
0.775488 -0.00310604 0
0.768417 -0.00352172 0
0.763001 -0.00394357 0
0.758948 -0.00437218 0
0.756028 -0.00480777 0
0.75405 -0.00525144 0
0.752865 -0.00570361 0
0.752354 -0.00616553 0
0.752421 -0.00663751 0
0.752992 -0.00712073 0
0.75401 -0.00761525 0
0.755427 -0.00812202 0
0.757209 -0.00864068 0
0.75933 -0.00917183 0
0.761769 -0.00971458 0
0.764512 -0.0102691 0
0.76755 -0.0108339 0
0.770873 -0.0114086 0
0.77448 -0.011991 0
0.778366 -0.0125801 0
0.782532 -0.013173 0
0.786978 -0.0137679 0
0.791705 -0.014361 0
0.796714 -0.0149501 0
0.802008 -0.0155304 0
0.807588 -0.016099 0
0.813456 -0.0166504 0
0.819612 -0.0171811 0
0.826058 -0.0176848 0
0.832791 -0.0181577 0
0.839811 -0.018593 0
0.847115 -0.0189866 0
0.854699 -0.0193315 0
0.862558 -0.0196238 0
0.870685 -0.0198564 0
0.879072 -0.0200259 0
0.88771 -0.0201258 0
0.896586 -0.0201533 0
0.905688 -0.0201028 0
0.915003 -0.0199727 0
0.924514 -0.0197585 0
0.934204 -0.0194602 0
0.944054 -0.0190746 0
0.954047 -0.0186035 0
0.964159 -0.0180454 0
0.974371 -0.0174039 0
0.984659 -0.016679 0
0.995 -0.0158765 0
1.00537 -0.0149977 0
1.01575 -0.0140505 0
1.02611 -0.0130373 0
1.03642 -0.0119677 0
1.04667 -0.0108452 0
1.05682 -0.00968067 0
1.06686 -0.00847833 0
1.07676 -0.00724995 0
1.08649 -0.00600009 0
1.09604 -0.00474112 0
1.10538 -0.00347742 0
1.11449 -0.00222165 0
1.12335 -0.00097758 0
1.13194 0.000242157 0
1.14025 0.0014348 0
1.14824 0.00258803 0
1.15592 0.0037004 0
1.16325 0.00476015 0
1.17023 0.00576743 0
1.17684 0.00671119 0
1.18308 0.0075934 0
1.18892 0.00840384 0
1.19437 0.00914644 0
1.19941 0.00981186 0
1.20403 0.0104061 0
1.20824 0.0109206 0
1.21203 0.0113634 0
1.21539 0.0117269 0
1.21833 0.0120211 0
1.22084 0.0122389 0
1.22294 0.0123924 0
1.22463 0.0124749 0
1.22591 0.0125002 0
1.2268 0.0124619 0
1.2273 0.0123752 0
1.22744 0.0122339 0
1.22721 0.0120542 0
1.22664 0.0118297 0
1.22575 0.0115775 0
1.22455 0.0112908 0
1.22306 0.010987 0
1.22131 0.0106588 0
1.21931 0.0103238 0
1.21709 0.00997355 0
1.21467 0.00962578 0
1.21207 0.00927109 0
1.20931 0.0089267 0
1.20642 0.00858229 0
1.20342 0.00825445 0
1.20032 0.00793199 0
1.19716 0.00763068 0
1.19393 0.0073386 0
1.19068 0.0070706 0
1.1874 0.00681425 0
1.18411 0.00658338 0
1.18084 0.0063653 0
1.17759 0.00617275 0
1.17437 0.00599313 0
1.17119 0.00583801 0
1.16806 0.00569516 0
1.16498 0.00557496 0
1.16197 0.00546586 0
1.15903 0.00537695 0
1.15616 0.00529769 0
1.15336 0.00523582 0
1.15063 0.00518206 0
1.14798 0.00514267 0
1.14541 0.00510996 0
1.14291 0.00508857 0
1.14048 0.0050726 0
1.13812 0.00506498 0
1.13583 0.00506183 0