# vtk DataFile Version 3.0
Flow field at step 1950
ASCII
DATASET STRUCTURED_GRID
DIMENSIONS 200 100 1
POINTS 20000 float
0.005 0.005 0
0.015 0.005 0
0.025 0.005 0
0.035 0.005 0
0.045 0.005 0
0.055 0.005 0
0.065 0.005 0
0.075 0.005 0
0.085 0.005 0
0.095 0.005 0
0.105 0.005 0
0.115 0.005 0
0.125 0.005 0
0.135 0.005 0
0.145 0.005 0
0.155 0.005 0
0.165 0.005 0
0.175 0.005 0
0.185 0.005 0
0.195 0.005 0
0.205 0.005 0
0.215 0.005 0
0.225 0.005 0
0.235 0.005 0
0.245 0.005 0
0.255 0.005 0
0.265 0.005 0
0.275 0.005 0
0.285 0.005 0
0.295 0.005 0
0.305 0.005 0
0.315 0.005 0
0.325 0.005 0
0.335 0.005 0
0.345 0.005 0
0.355 0.005 0
0.365 0.005 0
0.375 0.005 0
0.385 0.005 0
0.395 0.005 0
0.405 0.005 0
0.415 0.005 0
0.425 0.005 0
0.435 0.005 0
0.445 0.005 0
0.455 0.005 0
0.465 0.005 0
0.475 0.005 0
0.485 0.005 0
0.495 0.005 0
0.505 0.005 0
0.515 0.005 0
0.525 0.005 0
0.535 0.005 0
0.545 0.005 0
0.555 0.005 0
0.565 0.005 0
0.575 0.005 0
0.585 0.005 0
0.595 0.005 0
0.605 0.005 0
0.615 0.005 0
0.625 0.005 0
0.635 0.005 0
0.645 0.005 0
0.655 0.005 0
0.665 0.005 0
0.675 0.005 0
0.685 0.005 0
0.695 0.005 0
0.705 0.005 0
0.715 0.005 0
0.725 0.005 0
0.735 0.005 0
0.745 0.005 0
0.755 0.005 0
0.765 0.005 0
0.775 0.005 0
0.785 0.005 0
0.795 0.005 0
0.805 0.005 0
0.815 0.005 0
0.825 0.005 0
0.835 0.005 0
0.845 0.005 0
0.855 0.005 0
0.865 0.005 0
0.875 0.005 0
0.885 0.005 0
0.895 0.005 0
0.905 0.005 0
0.915 0.005 0
0.925 0.005 0
0.935 0.005 0
0.945 0.005 0
0.955 0.005 0
0.965 0.005 0
0.975 0.005 0
0.985 0.005 0
0.995 0.005 0
1.005 0.005 0
1.015 0.005 0
1.025 0.005 0
1.035 0.005 0
1.045 0.005 0
1.055 0.005 0
1.065 0.005 0
1.075 0.005 0
1.085 0.005 0
1.095 0.005 0
1.105 0.005 0
1.115 0.005 0
1.125 0.005 0
1.135 0.005 0
1.145 0.005 0
1.155 0.005 0
1.165 0.005 0
1.175 0.005 0
1.185 0.005 0
1.195 0.005 0
1.205 0.005 0
1.215 0.005 0
1.225 0.005 0
1.235 0.005 0
1.245 0.005 0
1.255 0.005 0
1.265 0.005 0
1.275 0.005 0
1.285 0.005 0
1.295 0.005 0
1.305 0.005 0
1.315 0.005 0
1.325 0.005 0
1.335 0.005 0
1.345 0.005 0
1.355 0.005 0
1.365 0.005 0
1.375 0.005 0
1.385 0.005 0
1.395 0.005 0
1.405 0.005 0
1.415 0.005 0
1.425 0.005 0
1.435 0.005 0
1.445 0.005 0
1.455 0.005 0
1.465 0.005 0
1.475 0.005 0
1.485 0.005 0
1.495 0.005 0
1.505 0.005 0
1.515 0.005 0
1.525 0.005 0
1.535 0.005 0
1.545 0.005 0
1.555 0.005 0
1.565 0.005 0
1.575 0.005 0
1.585 0.005 0
1.595 0.005 0
1.605 0.005 0
1.615 0.005 0
1.625 0.005 0
1.635 0.005 0
1.645 0.005 0
1.655 0.005 0
1.665 0.005 0
1.675 0.005 0
1.685 0.005 0
1.695 0.005 0
1.705 0.005 0
1.715 0.005 0
1.725 0.005 0
1.735 0.005 0
1.745 0.005 0
1.755 0.005 0
1.765 0.005 0
1.775 0.005 0
1.785 0.005 0
1.795 0.005 0
1.805 0.005 0
1.815 0.005 0
1.825 0.005 0
1.835 0.005 0
1.845 0.005 0
1.855 0.005 0
1.865 0.005 0
1.875 0.005 0
1.885 0.005 0
1.895 0.005 0
1.905 0.005 0
1.915 0.005 0
1.925 0.005 0
1.935 0.005 0
1.945 0.005 0
1.955 0.005 0
1.965 0.005 0
1.975 0.005 0
1.985 0.005 0
1.995 0.005 0
0.005 0.015 0
0.015 0.015 0
0.025 0.015 0
0.035 0.015 0
0.045 0.015 0
0.055 0.015 0
0.065 0.015 0
0.075 0.015 0
0.085 0.015 0
0.095 0.015 0
0.105 0.015 0
0.115 0.015 0
0.125 0.015 0
0.135 0.015 0
0.145 0.015 0
0.155 0.015 0
0.165 0.015 0
0.175 0.015 0
0.185 0.015 0
0.195 0.015 0
0.205 0.015 0
0.215 0.015 0
0.225 0.015 0
0.235 0.015 0
0.245 0.015 0
0.255 0.015 0
0.265 0.015 0
0.275 0.015 0
0.285 0.015 0
0.295 0.015 0
0.305 0.015 0
0.315 0.015 0
0.325 0.015 0
0.335 0.015 0
0.345 0.015 0
0.355 0.015 0
0.365 0.015 0
0.375 0.015 0
0.385 0.015 0
0.395 0.015 0
0.405 0.015 0
0.415 0.015 0
0.425 0.015 0
0.435 0.015 0
0.445 0.015 0
0.455 0.015 0
0.465 0.015 0
0.475 0.015 0
0.485 0.015 0
0.495 0.015 0
0.505 0.015 0
0.515 0.015 0
0.525 0.015 0
0.535 0.015 0
0.545 0.015 0
0.555 0.015 0
0.565 0.015 0
0.575 0.015 0
0.585 0.015 0
0.595 0.015 0
0.605 0.015 0
0.615 0.015 0
0.625 0.015 0
0.635 0.015 0
0.645 0.015 0
0.655 0.015 0
0.665 0.015 0
0.675 0.015 0
0.685 0.015 0
0.695 0.015 0
0.705 0.015 0
0.715 0.015 0
0.725 0.015 0
0.735 0.015 0
0.745 0.015 0
0.755 0.015 0
0.765 0.015 0
0.775 0.015 0
0.785 0.015 0
0.795 0.015 0
0.805 0.015 0
0.815 0.015 0
0.825 0.015 0
0.835 0.015 0
0.845 0.015 0
0.855 0.015 0
0.865 0.015 0
0.875 0.015 0
0.885 0.015 0
0.895 0.015 0
0.905 0.015 0
0.915 0.015 0
0.925 0.015 0
0.935 0.015 0
0.945 0.015 0
0.955 0.015 0
0.965 0.015 0
0.975 0.015 0
0.985 0.015 0
0.995 0.015 0
1.005 0.015 0
1.015 0.015 0
1.025 0.015 0
1.035 0.015 0
1.045 0.015 0
1.055 0.015 0
1.065 0.015 0
1.075 0.015 0
1.085 0.015 0
1.095 0.015 0
1.105 0.015 0
1.115 0.015 0
1.125 0.015 0
1.135 0.015 0
1.145 0.015 0
1.155 0.015 0
1.165 0.015 0
1.175 0.015 0
1.185 0.015 0
1.195 0.015 0
1.205 0.015 0
1.215 0.015 0
1.225 0.015 0
1.235 0.015 0
1.245 0.015 0
1.255 0.015 0
1.265 0.015 0
1.275 0.015 0
1.285 0.015 0
1.295 0.015 0
1.305 0.015 0
1.315 0.015 0
1.325 0.015 0
1.335 0.015 0
1.345 0.015 0
1.355 0.015 0
1.365 0.015 0
1.375 0.015 0
1.385 0.015 0
1.395 0.015 0
1.405 0.015 0
1.415 0.015 0
1.425 0.015 0
1.435 0.015 0
1.445 0.015 0
1.455 0.015 0
1.465 0.015 0
1.475 0.015 0
1.485 0.015 0
1.495 0.015 0
1.505 0.015 0
1.515 0.015 0
1.525 0.015 0
1.535 0.015 0
1.545 0.015 0
1.555 0.015 0
1.565 0.015 0
1.575 0.015 0
1.585 0.015 0
1.595 0.015 0
1.605 0.015 0
1.615 0.015 0
1.625 0.015 0
1.635 0.015 0
1.645 0.015 0
1.655 0.015 0
1.665 0.015 0
1.675 0.015 0
1.685 0.015 0
1.695 0.015 0
1.705 0.015 0
1.715 0.015 0
1.725 0.015 0
1.735 0.015 0
1.745 0.015 0
1.755 0.015 0
1.765 0.015 0
1.775 0.015 0
1.785 0.015 0
1.795 0.015 0
1.805 0.015 0
1.815 0.015 0
1.825 0.015 0
1.835 0.015 0
1.845 0.015 0
1.855 0.015 0
1.865 0.015 0
1.875 0.015 0
1.885 0.015 0
1.895 0.015 0
1.905 0.015 0
1.915 0.015 0
1.925 0.015 0
1.935 0.015 0
1.945 0.015 0
1.955 0.015 0
1.965 0.015 0
1.975 0.015 0
1.985 0.015 0
1.995 0.015 0
0.005 0.025 0
0.015 0.025 0
0.025 0.025 0
0.035 0.025 0
0.045 0.025 0
0.055 0.025 0
0.065 0.025 0
0.075 0.025 0
0.085 0.025 0
0.095 0.025 0
0.105 0.025 0
0.115 0.025 0
0.125 0.025 0
0.135 0.025 0
0.145 0.025 0
0.155 0.025 0
0.165 0.025 0
0.175 0.025 0
0.185 0.025 0
0.195 0.025 0
0.205 0.025 0
0.215 0.025 0
0.225 0.025 0
0.235 0.025 0
0.245 0.025 0
0.255 0.025 0
0.265 0.025 0
0.275 0.025 0
0.285 0.025 0
0.295 0.025 0
0.305 0.025 0
0.315 0.025 0
0.325 0.025 0
0.335 0.025 0
0.345 0.025 0
0.355 0.025 0
0.365 0.025 0
0.375 0.025 0
0.385 0.025 0
0.395 0.025 0
0.405 0.025 0
0.415 0.025 0
0.425 0.025 0
0.435 0.025 0
0.445 0.025 0
0.455 0.025 0
0.465 0.025 0
0.475 0.025 0
0.485 0.025 0
0.495 0.025 0
0.505 0.025 0
0.515 0.025 0
0.525 0.025 0
0.535 0.025 0
0.545 0.025 0
0.555 0.025 0
0.565 0.025 0
0.575 0.025 0
0.585 0.025 0
0.595 0.025 0
0.605 0.025 0
0.615 0.025 0
0.625 0.025 0
0.635 0.025 0
0.645 0.025 0
0.655 0.025 0
0.665 0.025 0
0.675 0.025 0
0.685 0.025 0
0.695 0.025 0
0.705 0.025 0
0.715 0.025 0
0.725 0.025 0
0.735 0.025 0
0.745 0.025 0
0.755 0.025 0
0.765 0.025 0
0.775 0.025 0
0.785 0.025 0
0.795 0.025 0
0.805 0.025 0
0.815 0.025 0
0.825 0.025 0
0.835 0.025 0
0.845 0.025 0
0.855 0.025 0
0.865 0.025 0
0.875 0.025 0
0.885 0.025 0
0.895 0.025 0
0.905 0.025 0
0.915 0.025 0
0.925 0.025 0
0.935 0.025 0
0.945 0.025 0
0.955 0.025 0
0.965 0.025 0
0.975 0.025 0
0.985 0.025 0
0.995 0.025 0
1.005 0.025 0
1.015 0.025 0
1.025 0.025 0
1.035 0.025 0
1.045 0.025 0
1.055 0.025 0
1.065 0.025 0
1.075 0.025 0
1.085 0.025 0
1.095 0.025 0
1.105 0.025 0
1.115 0.025 0
1.125 0.025 0
1.135 0.025 0
1.145 0.025 0
1.155 0.025 0
1.165 0.025 0
1.175 0.025 0
1.185 0.025 0
1.195 0.025 0
1.205 0.025 0
1.215 0.025 0
1.225 0.025 0
1.235 0.025 0
1.245 0.025 0
1.255 0.025 0
1.265 0.025 0
1.275 0.025 0
1.285 0.025 0
1.295 0.025 0
1.305 0.025 0
1.315 0.025 0
1.325 0.025 0
1.335 0.025 0
1.345 0.025 0
1.355 0.025 0
1.365 0.025 0
1.375 0.025 0
1.385 0.025 0
1.395 0.025 0
1.405 0.025 0
1.415 0.025 0
1.425 0.025 0
1.435 0.025 0
1.445 0.025 0
1.455 0.025 0
1.465 0.025 0
1.475 0.025 0
1.485 0.025 0
1.495 0.025 0
1.505 0.025 0
1.515 0.025 0
1.525 0.025 0
1.535 0.025 0
1.545 0.025 0
1.555 0.025 0
1.565 0.025 0
1.575 0.025 0
1.585 0.025 0
1.595 0.025 0
1.605 0.025 0
1.615 0.025 0
1.625 0.025 0
1.635 0.025 0
1.645 0.025 0
1.655 0.025 0
1.665 0.025 0
1.675 0.025 0
1.685 0.025 0
1.695 0.025 0
1.705 0.025 0
1.715 0.025 0
1.725 0.025 0
1.735 0.025 0
1.745 0.025 0
1.755 0.025 0
1.765 0.025 0
1.775 0.025 0
1.785 0.025 0
1.795 0.025 0
1.805 0.025 0
1.815 0.025 0
1.825 0.025 0
1.835 0.025 0
1.845 0.025 0
1.855 0.025 0
1.865 0.025 0
1.875 0.025 0
1.885 0.025 0
1.895 0.025 0
1.905 0.025 0
1.915 0.025 0
1.925 0.025 0
1.935 0.025 0
1.945 0.025 0
1.955 0.025 0
1.965 0.025 0
1.975 0.025 0
1.985 0.025 0
1.995 0.025 0
0.005 0.035 0
0.015 0.035 0
0.025 0.035 0
0.035 0.035 0
0.045 0.035 0
0.055 0.035 0
0.065 0.035 0
0.075 0.035 0
0.085 0.035 0
0.095 0.035 0
0.105 0.035 0
0.115 0.035 0
0.125 0.035 0
0.135 0.035 0
0.145 0.035 0
0.155 0.035 0
0.165 0.035 0
0.175 0.035 0
0.185 0.035 0
0.195 0.035 0
0.205 0.035 0
0.215 0.035 0
0.225 0.035 0
0.235 0.035 0
0.245 0.035 0
0.255 0.035 0
0.265 0.035 0
0.275 0.035 0
0.285 0.035 0
0.295 0.035 0
0.305 0.035 0
0.315 0.035 0
0.325 0.035 0
0.335 0.035 0
0.345 0.035 0
0.355 0.035 0
0.365 0.035 0
0.375 0.035 0
0.385 0.035 0
0.395 0.035 0
0.405 0.035 0
0.415 0.035 0
0.425 0.035 0
0.435 0.035 0
0.445 0.035 0
0.455 0.035 0
0.465 0.035 0
0.475 0.035 0
0.485 0.035 0
0.495 0.035 0
0.505 0.035 0
0.515 0.035 0
0.525 0.035 0
0.535 0.035 0
0.545 0.035 0
0.555 0.035 0
0.565 0.035 0
0.575 0.035 0
0.585 0.035 0
0.595 0.035 0
0.605 0.035 0
0.615 0.035 0
0.625 0.035 0
0.635 0.035 0
0.645 0.035 0
0.655 0.035 0
0.665 0.035 0
0.675 0.035 0
0.685 0.035 0
0.695 0.035 0
0.705 0.035 0
0.715 0.035 0
0.725 0.035 0
0.735 0.035 0
0.745 0.035 0
0.755 0.035 0
0.765 0.035 0
0.775 0.035 0
0.785 0.035 0
0.795 0.035 0
0.805 0.035 0
0.815 0.035 0
0.825 0.035 0
0.835 0.035 0
0.845 0.035 0
0.855 0.035 0
0.865 0.035 0
0.875 0.035 0
0.885 0.035 0
0.895 0.035 0
0.905 0.035 0
0.915 0.035 0
0.925 0.035 0
0.935 0.035 0
0.945 0.035 0
0.955 0.035 0
0.965 0.035 0
0.975 0.035 0
0.985 0.035 0
0.995 0.035 0
1.005 0.035 0
1.015 0.035 0
1.025 0.035 0
1.035 0.035 0
1.045 0.035 0
[...]
POINT_DATA 20000
VECTORS velocity float
0.95068 -2.4179e-05 0
0.909392 -5.41927e-05 0
0.875281 -8.85727e-05 0
0.847409 -0.000126146 0
0.824851 -0.000166046 0
0.806755 -0.000207626 0
0.792366 -0.000250473 0
0.781036 -0.000294296 0
0.772216 -0.000338965 0
0.765453 -0.000384391 0
0.760374 -0.000430604 0
0.756676 -0.000477615 0
0.754115 -0.000525532 0
0.752495 -0.000574404 0
0.751661 -0.000624368 0
0.751488 -0.000675469 0
0.751879 -0.000727845 0
0.752758 -0.000781516 0
0.754064 -0.000836598 0
0.755753 -0.000893069 0
0.757788 -0.000951012 0
0.760144 -0.00101035 0
0.7628 -0.00107112 0
0.765743 -0.00113318 0
0.768963 -0.00119651 0
0.772454 -0.00126089 0
0.776211 -0.00132625 0
0.780234 -0.00139228 0
0.784522 -0.00145884 0
0.789076 -0.00152553 0
0.793898 -0.00159214 0
0.79899 -0.00165817 0
0.804353 -0.00172335 0
0.809991 -0.00178709 0
0.815906 -0.00184906 0
0.822097 -0.00190857 0
0.828567 -0.00196525 0
0.835315 -0.00201835 0
0.842341 -0.00206748 0
0.849641 -0.00211181 0
0.857214 -0.00215098 0
0.865055 -0.00218415 0
0.873157 -0.00221098 0
0.881515 -0.00223064 0
0.89012 -0.00224289 0
0.898962 -0.00224694 0
0.908029 -0.00224269 0
0.917311 -0.00222941 0
0.926791 -0.00220717 0
0.936456 -0.00217537 0
0.94629 -0.00213426 0
0.956273 -0.00208339 0
0.966389 -0.00202322 0
0.976616 -0.00195344 0
0.986936 -0.00187477 0
0.997326 -0.00178703 0
1.00776 -0.00169117 0
1.01823 -0.00158713 0
1.0287 -0.0014761 0
1.03914 -0.00135812 0
1.04955 -0.00123459 0
1.05988 -0.00110558 0
1.07013 -0.000972692 0
1.08026 -0.000836007 0
1.09025 -0.000697278 0
1.10009 -0.000556537 0
1.10974 -0.000415664 0
1.11919 -0.000274596 0
1.12841 -0.000135306 0
1.13739 2.4157e-06 0
1.1461 0.000136526 0
1.15453 0.00026743 0
1.16265 0.000393035 0
1.17044 0.000513985 0
1.1779 0.00062815 0
1.18501 0.000736454 0
1.19175 0.000836737 0
1.1981 0.000930238 0
1.20406 0.00101476 0
1.20961 0.0010919 0
1.21475 0.00115941 0
1.21947 0.00121925 0
1.22376 0.00126914 0
1.22761 0.00131141 0
1.23102 0.00134371 0
1.234 0.00136879 0
1.23654 0.00138416 0
1.23864 0.001393 0
1.24031 0.00139268 0
1.24155 0.00138679 0
1.24237 0.00137252 0
1.24279 0.00135384 0
1.24282 0.00132774 0
1.24246 0.00129857 0
1.24174 0.00126304 0
1.24067 0.00122585 0
1.23928 0.00118343 0
1.23757 0.00114078 0
1.23558 0.001094 0
1.23333 0.00104836 0
1.23084 0.000999622 0
1.22813 0.000953285 0
1.22523 0.00090474 0
1.22217 0.000859682 0
1.21896 0.000813155 0
1.21563 0.000770993 0
1.2122 0.000727919 0
1.2087 0.000689866 0
1.20513 0.000651276 0
1.20154 0.000618139 0
1.19792 0.000584669 0
1.1943 0.000556876 0
1.1907 0.000528807 0
1.18712 0.000506453 0
1.18358 0.000483764 0
1.18009 0.000466671 0
1.17665 0.000449105 0
1.17328 0.000436891 0
1.16998 0.000424016 0
1.16676 0.00041616 0
1.16361 0.000407437 0
1.16055 0.000403334 0
1.15757 0.000398166 0
1.15468 0.000397184 0
1.15186 0.000394964 0
1.14913 0.000396474 0
1.14648 0.000396616 0
1.14391 0.00040003 0
1.14142 0.000401992 0
1.139 0.000406777 0
1.13665 0.000410078 0
1.13437 0.000415767 0
1.13216 0.000419993 0
1.13001 0.000426191 0
1.12791 0.000430993 0
1.12587 0.000437378 0
1.12388 0.000442475 0
1.12194 0.000448789 0
1.12005 0.000453961 0
1.11819 0.00046001 0
1.11638 0.000465088 0
1.1146 0.00047073 0
1.11286 0.000475592 0
1.11115 0.000480733 0
1.10947 0.000485294 0
1.10781 0.000489877 0
1.10618 0.000494083 0
1.10458 0.000498081 0
1.10299 0.0005019 0
1.10143 0.000505314 0
1.09989 0.00050873 0
1.09836 0.000511575 0
1.09685 0.000514588 0
1.09536 0.000516894 0
1.09389 0.000519506 0
1.09242 0.000521313 0
1.09098 0.000523532 0
1.08954 0.000524882 0
1.08812 0.000526717 0
1.08672 0.000527655 0
1.08532 0.000529113 0
1.08394 0.000529684 0
1.08257 0.000530767 0
1.08122 0.000531013 0
1.07988 0.000531718 0
1.07855 0.000531677 0
1.07723 0.000531997 0
1.07593 0.000531701 0
1.07464 0.000531619 0
1.07337 0.000531094 0
1.07211 0.000530588 0
1.07086 0.000529852 0
1.06963 0.00052889 0
1.06842 0.000527954 0
1.06722 0.000526497 0
1.06603 0.000525362 0
1.06487 0.00052336 0
1.06372 0.000522017 0
1.0626 0.000519413 0
1.06149 0.000517842 0
1.0604 0.000514569 0
1.05933 0.000512739 0
1.05829 0.000508721 0
1.05726 0.000506587 0
1.05626 0.000501742 0
1.05529 0.000499247 0
1.05434 0.000493487 0
1.05342 0.000490559 0
1.05253 0.000483802 0
1.05167 0.000480359 0
1.05085 0.000472549 0
1.05005 0.000468513 0
1.04929 0.000459674 0
1.04857 0.000455009 0
1.04789 0.000445373 0
1.04725 0.00044021 0
1.04665 0.000430549 0
1.04611 0.000425532 0
1.04564 0.000417978 0
1.04531 0.000415176 0
0.950665 -7.24871e-05 0
0.909365 -0.000162471 0
0.875245 -0.000265529 0
0.847366 -0.00037818 0
0.824803 -0.000497777 0
0.806703 -0.000622446 0
0.792312 -0.000750877 0
0.780979 -0.000882277 0
0.772157 -0.00101617 0
0.765392 -0.00115239 0
0.76031 -0.00129092 0
0.75661 -0.00143191 0
0.754047 -0.00157555 0
0.752425 -0.00172215 0
0.751588 -0.00187194 0
0.751412 -0.00202526 0
0.751801 -0.0021823 0
0.752676 -0.00234335 0
0.75398 -0.00250853 0
0.755665 -0.00267802 0
0.757697 -0.00285181 0
0.760049 -0.00302994 0
0.762703 -0.00321224 0
0.765643 -0.00339858 0
0.76886 -0.00358859 0
0.772348 -0.00378196 0
0.776104 -0.00397808 0
0.780125 -0.00417645 0
0.784411 -0.0043762 0
0.788965 -0.00457659 0
0.793786 -0.00477651 0
0.798879 -0.00497498 0
0.804244 -0.00517064 0
0.809884 -0.00536228 0
0.815801 -0.00554828 0
0.821997 -0.00572727 0
0.828472 -0.00589741 0
0.835226 -0.00605717 0
0.842259 -0.00620458 0
0.849567 -0.00633805 0
0.857149 -0.00645553 0
0.865 -0.00655545 0
0.873113 -0.0066358 0
0.881483 -0.00669515 0
0.8901 -0.00673164 0
0.898955 -0.00674409 0
0.908037 -0.0067309 0
0.917332 -0.00669128 0
0.926827 -0.00662397 0
0.936507 -0.00652868 0
0.946354 -0.0064046 0
0.956352 -0.00625199 0
0.966481 -0.00607056 0
0.976722 -0.0058612 0
0.987054 -0.0056241 0
0.997455 -0.0053608 0
1.0079 -0.00507201 0
1.01838 -0.00475984 0
1.02885 -0.00442546 0
1.03931 -0.00407152 0
1.04971 -0.00369955 0
1.06005 -0.00331265 0
1.0703 -0.00291259 0
1.08043 -0.00250281 0
1.09042 -0.00208522 0
1.10025 -0.00166348 0
1.1099 -0.00123948 0
1.11934 -0.000816994 0
1.12855 -0.000397761 0
1.13752 1.44135e-05 0
1.14622 0.000418084 0
1.15462 0.00080952 0
1.16273 0.00118766 0
1.17051 0.00154894 0
1.17795 0.00189278 0
1.18503 0.00221583 0
1.19175 0.00251808 0
1.19808 0.00279642 0
1.20402 0.00305149 0
1.20955 0.00328046 0
1.21467 0.00348464 0
1.21936 0.00366147 0
1.22362 0.00381298 0
1.22745 0.00393687 0
1.23084 0.00403587 0
1.23379 0.00410792 0
1.23631 0.00415646 0
1.23838 0.00417958 0
1.24003 0.0041814 0
1.24125 0.00416011 0
1.24206 0.00412046 0
1.24246 0.00406062 0
1.24247 0.00398589 0
1.24209 0.00389434 0
1.24136 0.00379173 0
1.24027 0.00367593 0
1.23886 0.00355306 0
1.23715 0.00342065 0
1.23515 0.00328509 0
1.23289 0.0031435 0
1.23039 0.00300242 0
1.22767 0.00285849 0
1.22477 0.0027183 0
1.2217 0.00257799 0
1.21848 0.00244411 0
1.21515 0.00231227 0
1.21172 0.00218895 0
1.20821 0.00206924 0
1.20465 0.00195951 0
1.20105 0.00185439 0
1.19743 0.00176009 0
1.19381 0.00167089 0
1.19021 0.00159281 0
1.18663 0.00151985 0
1.18309 0.00145787 0
1.17959 0.00140068 0
1.17616 0.00135395 0
1.17279 0.00131145 0
1.16949 0.00127864 0
1.16626 0.00124932 0
1.16312 0.00122875 0
1.16005 0.00121086 0
1.15707 0.00120069 0
1.15417 0.0011924 0
1.15136 0.00119075 0
1.14863 0.00119023 0
1.14598 0.00119532 0
1.14341 0.00120086 0
1.14091 0.00121101 0
1.13849 0.00122105 0
1.13614 0.00123479 0
1.13386 0.00124798 0
1.13165 0.00126403 0
1.12949 0.00127921 0
1.1274 0.00129652 0
1.12535 0.00131274 0
1.12336 0.00133045 0
1.12142 0.00134696 0
1.11953 0.0013644 0
1.11767 0.00138062 0
1.11586 0.00139728 0
1.11408 0.00141278 0
1.11234 0.00142832 0
1.11063 0.00144279 0
1.10894 0.00145697 0
1.10729 0.00147023 0
1.10566 0.00148291 0
1.10405 0.00149485 0
1.10247 0.00150598 0
1.10091 0.00151654 0
1.09936 0.00152612 0
1.09784 0.00153531 0
1.09633 0.00154338 0
1.09484 0.00155124 0
1.09337 0.00155787 0
1.09191 0.00156444 0
1.09046 0.00156973 0
1.08903 0.00157508 0
1.08761 0.00157912 0
1.0862 0.00158329 0
1.08481 0.00158618 0
1.08343 0.00158925 0
1.08207 0.00159107 0
1.08071 0.00159307 0
1.07937 0.00159391 0
1.07804 0.00159486 0
1.07673 0.00159478 0
1.07543 0.00159469 0
1.07414 0.00159373 0
1.07287 0.00159259 0
1.07161 0.00159078 0
1.07037 0.00158855 0
1.06914 0.00158588 0
1.06793 0.00158251 0
1.06673 0.00157894 0
1.06555 0.00157434 0
1.06439 0.00156983 0
1.06324 0.00156387 0
1.06212 0.00155833 0
1.06101 0.00155088 0
1.05993 0.00154419 0
1.05886 0.00153507 0
1.05782 0.00152708 0
1.0568 0.00151609 0
1.0558 0.00150662 0
1.05483 0.00149352 0
1.05388 0.00148234 0
1.05297 0.0014669 0
1.05208 0.00145379 0
1.05122 0.00143577 0
1.05039 0.0014205 0
1.0496 0.00139978 0
1.04884 0.00138223 0
1.04812 0.00135898 0
1.04744 0.00133945 0
1.0468 0.00131467 0
1.04621 0.00129457 0
1.04567 0.00127151 0
1.0452 0.00125533 0
1.04488 0.00124294 0
0.950634 -0.000120651 0
0.909311 -0.000270412 0
0.875174 -0.000441939 0
0.847281 -0.000629411 0
0.824708 -0.000828462 0
0.8066 -0.00103593 0
0.792203 -0.00124969 0
0.780865 -0.00146837 0
0.772039 -0.00169125 0
0.765269 -0.00191798 0
0.760183 -0.0021486 0
0.756479 -0.00238332 0
0.753911 -0.00262252 0
0.752284 -0.00286662 0
0.751442 -0.00311613 0
0.751261 -0.00337148 0
0.751643 -0.00363315 0
0.752513 -0.00390148 0
0.75381 -0.00417681 0
0.755489 -0.00445929 0
0.757514 -0.00474907 0
0.75986 -0.00504605 0
0.762507 -0.00535014 0
0.765441 -0.00566093 0
0.768653 -0.00597801 0
0.772136 -0.00630064 0
0.775887 -0.00662807 0
0.779905 -0.00695916 0
0.784189 -0.00729278 0
0.788741 -0.00762737 0
0.793563 -0.00796141 0
0.798656 -0.00829292 0
0.804024 -0.00861996 0
0.809669 -0.00894015 0
0.815592 -0.00925119 0
0.821796 -0.0095503 0
0.828281 -0.00983491 0
0.835047 -0.0101019 0
0.842094 -0.0103486 0
0.849419 -0.0105717 0
0.857019 -0.0107683 0
0.864889 -0.0109352 0
0.873025 -0.0110698 0
0.881418 -0.0111688 0
0.89006 -0.0112299 0
0.898941 -0.0112504 0
0.90805 -0.0112283 0
0.917374 -0.0111615 0
0.926898 -0.0110489 0
0.936607 -0.0108888 0
0.946483 -0.0106812 0
0.956509 -0.0104251 0
0.966666 -0.0101215 0
0.976933 -0.00977048 0
0.98729 -0.00937377 0
0.997713 -0.00893254 0
1.00818 -0.00844948 0
1.01867 -0.00792659 0
1.02916 -0.00736749 0
1.03963 -0.00677492 0
1.05005 -0.00615326 0
1.06039 -0.0055058 0
1.07064 -0.00483755 0
1.08077 -0.00415216 0
1.09076 -0.00345505 0
1.10058 -0.00275001 0
1.11021 -0.00204268 0
1.11963 -0.00133677 0
1.12883 -0.000637941 0
1.13777 5.03843e-05 0
1.14644 0.000722685 0
1.15482 0.00137603 0
1.16289 0.00200519 0
1.17063 0.00260788 0
1.17804 0.0031793 0
1.18508 0.00371794 0
1.19175 0.00421952 0
1.19804 0.00468342 0
1.20393 0.00510594 0
1.20942 0.00548743 0
1.21448 0.00582479 0
1.21913 0.00611939 0
1.22334 0.00636872 0
1.22712 0.00657521 0
1.23047 0.00673691 0
1.23337 0.00685727 0
1.23584 0.00693482 0
1.23787 0.006974 0
1.23948 0.00697375 0
1.24066 0.00693938 0
1.24142 0.00687009 0
1.24179 0.00677198 0
1.24176 0.00664437 0
1.24135 0.00649397 0
1.24058 0.00632003 0
1.23947 0.00612975 0
1.23804 0.00592214 0
1.2363 0.00570469 0
1.23428 0.005476 0
1.232 0.00524369 0
1.22948 0.00500581 0
1.22675 0.00476995 0
1.22384 0.00453352 0
1.22075 0.00430395 0
1.21753 0.00407794 0
1.21419 0.00386265 0
1.21075 0.00365409 0
1.20724 0.00345912 0
1.20367 0.00327303 0
1.20007 0.00310237 0
1.19645 0.00294184 0
1.19283 0.00279762 0
1.18922 0.00266394 0
1.18564 0.00254667 0
1.18209 0.00243968 0
1.1786 0.00234852 0
1.17516 0.00226686 0
1.17179 0.00219997 0
1.16849 0.00214144 0
1.16526 0.00209629 0
1.16211 0.00205815 0
1.15905 0.00203181 0
1.15607 0.00201106 0
1.15317 0.00200044 0
1.15035 0.00199402 0
1.14762 0.00199607 0
1.14496 0.00200103 0
1.14239 0.00201288 0
1.13989 0.0020265 0
1.13747 0.00204556 0
1.13512 0.0020654 0
1.13284 0.0020894 0
1.13062 0.00211339 0
1.12846 0.00214039 0
1.12636 0.00216679 0
1.12432 0.00219521 0
1.12233 0.00222262 0
1.12038 0.00225119 0
1.11849 0.00227849 0
1.11663 0.00230627 0
1.11482 0.00233263 0
1.11304 0.0023589 0
1.11129 0.00238373 0
1.10958 0.00240801 0
1.1079 0.0024309 0
1.10624 0.00245288 0
1.10461 0.00247359 0
1.10301 0.00249311 0
1.10143 0.00251152 0
1.09986 0.00252852 0
1.09832 0.00254461 0
1.0968 0.00255913 0
1.09529 0.00257293 0
1.0938 0.00258506 0
1.09233 0.00259665 0
1.09087 0.00260652 0
1.08943 0.002616 0
1.088 0.00262375 0
1.08658 0.00263124 0
1.08518 0.00263702 0
1.08379 0.00264262 0
1.08241 0.00264657 0
1.08105 0.00265038 0
1.0797 0.00265263 0
1.07836 0.00265472 0
1.07704 0.00265537 0
1.07573 0.00265577 0
1.07443 0.00265489 0
1.07315 0.00265363 0
1.07188 0.00265126 0
1.07062 0.0026483 0
1.06938 0.00264444 0
1.06816 0.00263972 0
1.06695 0.00263433 0
1.06576 0.00262774 0
1.06458 0.00262073 0
1.06343 0.00261212 0
1.06229 0.00260336 0
1.06116 0.00259252 0
1.06006 0.00258183 0
1.05898 0.00256851 0
1.05792 0.00255564 0
1.05688 0.00253954 0
1.05586 0.00252421 0
1.05487 0.00250498 0
1.05391 0.00248684 0
1.05296 0.00246408 0
1.05205 0.00244275 0
1.05117 0.00241606 0
1.05031 0.00239114 0
1.04949 0.00236019 0
1.0487 0.00233139 0
1.04795 0.00229612 0
1.04723 0.00226355 0
1.04655 0.00222471 0
1.04592 0.00218963 0
1.04533 0.00215017 0
1.04479 0.00211712 0
1.04433 0.00208582 0
1.044 0.00206786 0
0.950589 -0.000168569 0
0.90923 -0.000377801 0
0.875066 -0.00061742 0
0.847153 -0.000879318 0
0.824565 -0.00115737 0
0.806446 -0.00144721 0
0.79204 -0.00174582 0
0.780694 -0.00205135 0
0.771861 -0.00236273 0
0.765085 -0.00267957 0
0.759993 -0.00300185 0
0.756282 -0.00332994 0
0.753707 -0.00366432 0
0.752073 -0.00400565 0
0.751223 -0.00435458 0
0.751033 -0.0047118 0
0.751407 -0.0050779 0
0.752267 -0.00545346 0
0.753555 -0.00583886 0
0.755224 -0.00623444 0
0.75724 -0.00664028 0
0.759576 -0.00705641 0
0.762214 -0.00748253 0
0.765139 -0.00791826 0
0.768342 -0.00836284 0
0.771818 -0.00881544 0
0.775562 -0.00927479 0
0.779574 -0.00973954 0
0.783855 -0.0102079 0
0.788404 -0.0106778 0
0.793226 -0.011147 0
0.798321 -0.0116129 0
0.803693 -0.0120724 0
0.809344 -0.0125227 0
0.815277 -0.0129599 0
0.821493 -0.0133808 0
0.827993 -0.013781 0
0.834777 -0.0141569 0
0.841844 -0.0145038 0
0.849193 -0.0148179 0
0.85682 -0.0150945 0
0.864721 -0.0153295 0
0.872889 -0.0155186 0
0.881318 -0.015658 0
0.889998 -0.0157436 0
0.898919 -0.0157723 0
0.908069 -0.0157405 0
0.917435 -0.0156462 0
0.927002 -0.0154867 0
0.936754 -0.0152609 0
0.946674 -0.0149674 0
0.956742 -0.0146063 0
0.96694 -0.0141776 0
0.977247 -0.0136828 0
0.98764 -0.013123 0
0.998098 -0.0125014 0
1.0086 -0.0118202 0
1.01912 -0.0110839 0
1.02963 -0.0102961 0
1.04011 -0.00946221 0
1.05054 -0.00858685 0
1.06089 -0.00767642 0
1.07114 -0.00673617 0
1.08127 -0.0057732 0
1.09125 -0.00479313 0
1.10106 -0.00380346 0
1.11067 -0.00280987 0
1.12007 -0.00181997 0
1.12923 -0.000839216 0
1.13814 0.000124954 0
1.14676 0.00106758 0
1.1551 0.00198163 0
1.16312 0.00286288 0
1.17081 0.0037049 0
1.17815 0.00450443 0
1.18514 0.00525577 0
1.19174 0.0059568 0
1.19796 0.00660265 0
1.20379 0.00719247 0
1.2092 0.00772229 0
1.2142 0.00819258 0
1.21877 0.00860034 0
1.22291 0.00894738 0
1.22662 0.00923159 0
1.22989 0.00945617 0
1.23273 0.00961984 0
1.23513 0.00972708 0
1.23709 0.00977735 0
1.23863 0.00977633 0
1.23975 0.00972402 0
1.24046 0.00962715 0
1.24076 0.00948611 0
1.24068 0.00930846 0
1.24023 0.00909474 0
1.23941 0.00885315 0
1.23826 0.00858411 0
1.23679 0.00829622 0
1.23501 0.00798958 0
1.23296 0.00767292 0
1.23065 0.0073458 0
1.22811 0.00701688 0
1.22536 0.00668499 0
1.22243 0.00635852 0
1.21933 0.00603548 0
1.21609 0.00572385 0
1.21274 0.00542073 0
1.20929 0.00513363 0
1.20577 0.00485875 0
1.20219 0.00460306 0
1.19859 0.00436195 0
1.19496 0.00414187 0
1.19134 0.00393748 0
1.18773 0.00375476 0
1.18414 0.00358778 0
1.1806 0.00344209 0
1.1771 0.00331139 0
1.17366 0.00320081 0
1.17029 0.00310384 0
1.16698 0.00302529 0
1.16376 0.00295857 0
1.16061 0.00290821 0
1.15754 0.00286771 0
1.15455 0.00284134 0
1.15165 0.00282282 0
1.14883 0.00281616 0
1.14609 0.00281542 0
1.14344 0.00282436 0
1.14086 0.00283746 0
1.13836 0.0028582 0
1.13593 0.00288156 0
1.13358 0.00291072 0
1.13129 0.00294121 0
1.12907 0.00297589 0
1.12691 0.00301084 0
1.12481 0.00304861 0
1.12276 0.00308586 0
1.12077 0.00312475 0
1.11882 0.00316254 0
1.11692 0.00320102 0
1.11507 0.00323803 0
1.11325 0.00327494 0
1.11147 0.00331017 0
1.10972 0.00334469 0
1.10801 0.00337747 0
1.10633 0.00340905 0
1.10467 0.00343893 0
1.10304 0.00346725 0
1.10144 0.00349398 0
1.09986 0.00351889 0
1.0983 0.00354238 0
1.09676 0.00356387 0
1.09523 0.00358414 0
1.09373 0.00360229 0
1.09224 0.00361941 0
1.09077 0.00363437 0
1.08932 0.00364849 0
1.08788 0.00366044 0
1.08645 0.00367172 0
1.08504 0.00368085 0
1.08364 0.00368945 0
1.08225 0.00369596 0
1.08088 0.00370202 0
1.07952 0.0037061 0
1.07818 0.00370974 0
1.07685 0.00371152 0
1.07553 0.00371283 0
1.07422 0.00371244 0
1.07293 0.00371147 0
1.07166 0.00370896 0
1.07039 0.0037057 0
1.06914 0.0037011 0
1.06791 0.00369549 0
1.06669 0.00368876 0
1.06549 0.00368069 0
1.0643 0.00367173 0
1.06313 0.00366103 0
1.06198 0.00364967 0
1.06085 0.0036361 0
1.05973 0.00362212 0
1.05864 0.00360536 0
1.05756 0.00358845 0
1.05651 0.00356813 0
1.05548 0.00354791 0
1.05447 0.00352358 0
1.05348 0.0034996 0
1.05252 0.00347072 0
1.05159 0.00344247 0
1.05068 0.00340849 0
1.0498 0.0033754 0
1.04895 0.00333579 0
1.04814 0.00329736 0
1.04735 0.00325177 0
1.04661 0.00320781 0
1.0459 0.00315656 0
1.04522 0.00310786 0
1.04459 0.00305311 0
1.04401 0.00300327 0
1.04348 0.00295214 0
1.04302 0.00291228 0
1.0427 0.00288473 0
0.950528 -0.000216144 0
0.909123 -0.000484401 0
0.874923 -0.000791604 0
0.846984 -0.00112734 0
0.824376 -0.0014838 0
0.806241 -0.00185535 0
0.791823 -0.00223819 0
0.780467 -0.0026299 0
0.771625 -0.00302919 0
0.76484 -0.0034355 0
0.75974 -0.0038489 0
0.75602 -0.00426979 0
0.753436 -0.00469889 0
0.751791 -0.00513698 0
0.750931 -0.00558499 0
0.75073 -0.00604374 0
0.751091 -0.0065141 0
0.751939 -0.0069967 0
0.753214 -0.00749219 0
0.75487 -0.00800088 0
0.756873 -0.00852303 0
0.759196 -0.00905854 0
0.761821 -0.00960719 0
0.764734 -0.0101683 0
0.767926 -0.0107412 0
0.771391 -0.0113246 0
0.775127 -0.011917 0
0.779131 -0.0125164 0
0.783406 -0.0131208 0
0.787953 -0.0137275 0
0.792773 -0.0143335 0
0.797871 -0.0149353 0
0.803248 -0.0155294 0
0.808908 -0.0161114 0
0.814852 -0.016677 0
0.821084 -0.0172213 0
0.827604 -0.0177394 0
0.834412 -0.0182257 0
0.841507 -0.018675 0
0.848888 -0.0190814 0
0.856551 -0.0194397 0
0.864492 -0.0197438 0
0.872704 -0.0199886 0
0.88118 -0.0201686 0
0.88991 -0.0202792 0
0.898884 -0.0203155 0
0.908089 -0.0202738 0
0.917512 -0.0201504 0
0.927137 -0.0199428 0
0.936947 -0.0196487 0
0.946924 -0.0192673 0
0.957049 -0.0187978 0
0.967302 -0.0182411 0
0.97766 -0.0175982 0
0.988102 -0.0168719 0
0.998605 -0.0160648 0
1.00914 -0.0151816 0
1.0197 -0.0142266 0
1.03024 -0.013206 0
1.04075 -0.0121254 0
1.05119 -0.0109924 0
1.06155 -0.00981378 0
1.07181 -0.00859811 0
1.08193 -0.0073528 0
1.09189 -0.0060871 0
1.10168 -0.00480872 0
1.11127 -0.00352718 0
1.12063 -0.00225007 0
1.12975 -0.000986813 0
1.1386 0.000255485 0
1.14718 0.00146782 0
1.15545 0.0026439 0
1.1634 0.00377543 0
1.17102 0.00485723 0
1.17828 0.00588192 0
1.18518 0.00684567 0
1.19171 0.00774219 0
1.19784 0.00856915 0
1.20357 0.00932149 0
1.20889 0.00999848 0
1.21379 0.0105964 0
1.21827 0.0111161 0
1.22231 0.0115551 0
1.22592 0.011916 0
1.2291 0.0121976 0
1.23184 0.012404 0
1.23415 0.0125351 0
1.23603 0.0125967 0
1.23748 0.0125893 0
1.23852 0.01252 0
1.23915 0.0123903 0
1.23938 0.0122084 0
1.23923 0.0119758 0
1.2387 0.0117018 0
1.23783 0.0113881 0
1.23662 0.0110443 0
1.2351 0.0106721 0
1.23328 0.0102812 0
1.23118 0.00987269 0
1.22884 0.00945645 0
1.22627 0.00903278 0
1.22349 0.00861115 0
1.22053 0.00819096 0
1.21741 0.00778116 0
1.21415 0.00738011 0
1.21078 0.00699612 0
1.20732 0.00662646 0
1.20379 0.00627872 0
1.20021 0.00594912 0
1.1966 0.00564455 0
1.19297 0.00536028 0
1.18934 0.00510252 0
1.18572 0.00486576 0
1.18214 0.00465561 0
1.17859 0.00446596 0
1.17509 0.00430189 0
1.17165 0.00415691 0
1.16827 0.00403565 0
1.16497 0.00393142 0
1.16174 0.00384851 0
1.15858 0.00378021 0
1.15551 0.00373049 0
1.15252 0.00369281 0
1.14962 0.00367087 0
1.14679 0.00365841 0
1.14405 0.00365891 0