# vtk DataFile Version 3.0
Flow field at step 1350
ASCII
DATASET STRUCTURED_GRID
DIMENSIONS 200 100 1
POINTS 20000 float
0.005 0.005 0
0.015 0.005 0
0.025 0.005 0
0.035 0.005 0
0.045 0.005 0
0.055 0.005 0
0.065 0.005 0
0.075 0.005 0
0.085 0.005 0
0.095 0.005 0
0.105 0.005 0
0.115 0.005 0
0.125 0.005 0
0.135 0.005 0
0.145 0.005 0
0.155 0.005 0
0.165 0.005 0
0.175 0.005 0
0.185 0.005 0
0.195 0.005 0
0.205 0.005 0
0.215 0.005 0
0.225 0.005 0
0.235 0.005 0
0.245 0.005 0
0.255 0.005 0
0.265 0.005 0
0.275 0.005 0
0.285 0.005 0
0.295 0.005 0
0.305 0.005 0
0.315 0.005 0
0.325 0.005 0
0.335 0.005 0
0.345 0.005 0
0.355 0.005 0
0.365 0.005 0
0.375 0.005 0
0.385 0.005 0
0.395 0.005 0
0.405 0.005 0
0.415 0.005 0
0.425 0.005 0
0.435 0.005 0
0.445 0.005 0
0.455 0.005 0
0.465 0.005 0
0.475 0.005 0
0.485 0.005 0
0.495 0.005 0
0.505 0.005 0
0.515 0.005 0
0.525 0.005 0
0.535 0.005 0
0.545 0.005 0
0.555 0.005 0
0.565 0.005 0
0.575 0.005 0
0.585 0.005 0
0.595 0.005 0
0.605 0.005 0
0.615 0.005 0
0.625 0.005 0
0.635 0.005 0
0.645 0.005 0
0.655 0.005 0
0.665 0.005 0
0.675 0.005 0
0.685 0.005 0
0.695 0.005 0
0.705 0.005 0
0.715 0.005 0
0.725 0.005 0
0.735 0.005 0
0.745 0.005 0
0.755 0.005 0
0.765 0.005 0
0.775 0.005 0
0.785 0.005 0
0.795 0.005 0
0.805 0.005 0
0.815 0.005 0
0.825 0.005 0
0.835 0.005 0
0.845 0.005 0
0.855 0.005 0
0.865 0.005 0
0.875 0.005 0
0.885 0.005 0
0.895 0.005 0
0.905 0.005 0
0.915 0.005 0
0.925 0.005 0
0.935 0.005 0
0.945 0.005 0
0.955 0.005 0
0.965 0.005 0
0.975 0.005 0
0.985 0.005 0
0.995 0.005 0
1.005 0.005 0
1.015 0.005 0
1.025 0.005 0
1.035 0.005 0
1.045 0.005 0
1.055 0.005 0
1.065 0.005 0
1.075 0.005 0
1.085 0.005 0
1.095 0.005 0
1.105 0.005 0
1.115 0.005 0
1.125 0.005 0
1.135 0.005 0
1.145 0.005 0
1.155 0.005 0
1.165 0.005 0
1.175 0.005 0
1.185 0.005 0
1.195 0.005 0
1.205 0.005 0
1.215 0.005 0
1.225 0.005 0
1.235 0.005 0
1.245 0.005 0
1.255 0.005 0
1.265 0.005 0
1.275 0.005 0
1.285 0.005 0
1.295 0.005 0
1.305 0.005 0
1.315 0.005 0
1.325 0.005 0
1.335 0.005 0
1.345 0.005 0
1.355 0.005 0
1.365 0.005 0
1.375 0.005 0
1.385 0.005 0
1.395 0.005 0
1.405 0.005 0
1.415 0.005 0
1.425 0.005 0
1.435 0.005 0
1.445 0.005 0
1.455 0.005 0
1.465 0.005 0
1.475 0.005 0
1.485 0.005 0
1.495 0.005 0
1.505 0.005 0
1.515 0.005 0
1.525 0.005 0
1.535 0.005 0
1.545 0.005 0
1.555 0.005 0
1.565 0.005 0
1.575 0.005 0
1.585 0.005 0
1.595 0.005 0
1.605 0.005 0
1.615 0.005 0
1.625 0.005 0
1.635 0.005 0
1.645 0.005 0
1.655 0.005 0
1.665 0.005 0
1.675 0.005 0
1.685 0.005 0
1.695 0.005 0
1.705 0.005 0
1.715 0.005 0
1.725 0.005 0
1.735 0.005 0
1.745 0.005 0
1.755 0.005 0
1.765 0.005 0
1.775 0.005 0
1.785 0.005 0
1.795 0.005 0
1.805 0.005 0
1.815 0.005 0
1.825 0.005 0
1.835 0.005 0
1.845 0.005 0
1.855 0.005 0
1.865 0.005 0
1.875 0.005 0
1.885 0.005 0
1.895 0.005 0
1.905 0.005 0
1.915 0.005 0
1.925 0.005 0
1.935 0.005 0
1.945 0.005 0
1.955 0.005 0
1.965 0.005 0
1.975 0.005 0
1.985 0.005 0
1.995 0.005 0
0.005 0.015 0
0.015 0.015 0
0.025 0.015 0
0.035 0.015 0
0.045 0.015 0
0.055 0.015 0
0.065 0.015 0
0.075 0.015 0
0.085 0.015 0
0.095 0.015 0
0.105 0.015 0
0.115 0.015 0
0.125 0.015 0
0.135 0.015 0
0.145 0.015 0
0.155 0.015 0
0.165 0.015 0
0.175 0.015 0
0.185 0.015 0
0.195 0.015 0
0.205 0.015 0
0.215 0.015 0
0.225 0.015 0
0.235 0.015 0
0.245 0.015 0
0.255 0.015 0
0.265 0.015 0
0.275 0.015 0
0.285 0.015 0
0.295 0.015 0
0.305 0.015 0
0.315 0.015 0
0.325 0.015 0
0.335 0.015 0
0.345 0.015 0
0.355 0.015 0
0.365 0.015 0
0.375 0.015 0
0.385 0.015 0
0.395 0.015 0
0.405 0.015 0
0.415 0.015 0
0.425 0.015 0
0.435 0.015 0
0.445 0.015 0
0.455 0.015 0
0.465 0.015 0
0.475 0.015 0
0.485 0.015 0
0.495 0.015 0
0.505 0.015 0
0.515 0.015 0
0.525 0.015 0
0.535 0.015 0
0.545 0.015 0
0.555 0.015 0
0.565 0.015 0
0.575 0.015 0
0.585 0.015 0
0.595 0.015 0
0.605 0.015 0
0.615 0.015 0
0.625 0.015 0
0.635 0.015 0
0.645 0.015 0
0.655 0.015 0
0.665 0.015 0
0.675 0.015 0
0.685 0.015 0
0.695 0.015 0
0.705 0.015 0
0.715 0.015 0
0.725 0.015 0
0.735 0.015 0
0.745 0.015 0
0.755 0.015 0
0.765 0.015 0
0.775 0.015 0
0.785 0.015 0
0.795 0.015 0
0.805 0.015 0
0.815 0.015 0
0.825 0.015 0
0.835 0.015 0
0.845 0.015 0
0.855 0.015 0
0.865 0.015 0
0.875 0.015 0
0.885 0.015 0
0.895 0.015 0
0.905 0.015 0
0.915 0.015 0
0.925 0.015 0
0.935 0.015 0
0.945 0.015 0
0.955 0.015 0
0.965 0.015 0
0.975 0.015 0
0.985 0.015 0
0.995 0.015 0
1.005 0.015 0
1.015 0.015 0
1.025 0.015 0
1.035 0.015 0
1.045 0.015 0
1.055 0.015 0
1.065 0.015 0
1.075 0.015 0
1.085 0.015 0
1.095 0.015 0
1.105 0.015 0
1.115 0.015 0
1.125 0.015 0
1.135 0.015 0
1.145 0.015 0
1.155 0.015 0
1.165 0.015 0
1.175 0.015 0
1.185 0.015 0
1.195 0.015 0
1.205 0.015 0
1.215 0.015 0
1.225 0.015 0
1.235 0.015 0
1.245 0.015 0
1.255 0.015 0
1.265 0.015 0
1.275 0.015 0
1.285 0.015 0
1.295 0.015 0
1.305 0.015 0
1.315 0.015 0
1.325 0.015 0
1.335 0.015 0
1.345 0.015 0
1.355 0.015 0
1.365 0.015 0
1.375 0.015 0
1.385 0.015 0
1.395 0.015 0
1.405 0.015 0
1.415 0.015 0
1.425 0.015 0
1.435 0.015 0
1.445 0.015 0
1.455 0.015 0
1.465 0.015 0
1.475 0.015 0
1.485 0.015 0
1.495 0.015 0
1.505 0.015 0
1.515 0.015 0
1.525 0.015 0
1.535 0.015 0
1.545 0.015 0
1.555 0.015 0
1.565 0.015 0
1.575 0.015 0
1.585 0.015 0
1.595 0.015 0
1.605 0.015 0
1.615 0.015 0
1.625 0.015 0
1.635 0.015 0
1.645 0.015 0
1.655 0.015 0
1.665 0.015 0
1.675 0.015 0
1.685 0.015 0
1.695 0.015 0
1.705 0.015 0
1.715 0.015 0
1.725 0.015 0
1.735 0.015 0
1.745 0.015 0
1.755 0.015 0
1.765 0.015 0
1.775 0.015 0
1.785 0.015 0
1.795 0.015 0
1.805 0.015 0
1.815 0.015 0
1.825 0.015 0
1.835 0.015 0
1.845 0.015 0
1.855 0.015 0
1.865 0.015 0
1.875 0.015 0
1.885 0.015 0
1.895 0.015 0
1.905 0.015 0
1.915 0.015 0
1.925 0.015 0
1.935 0.015 0
1.945 0.015 0
1.955 0.015 0
1.965 0.015 0
1.975 0.015 0
1.985 0.015 0
1.995 0.015 0
0.005 0.025 0
0.015 0.025 0
0.025 0.025 0
0.035 0.025 0
0.045 0.025 0
0.055 0.025 0
0.065 0.025 0
0.075 0.025 0
0.085 0.025 0
0.095 0.025 0
0.105 0.025 0
0.115 0.025 0
0.125 0.025 0
0.135 0.025 0
0.145 0.025 0
0.155 0.025 0
0.165 0.025 0
0.175 0.025 0
0.185 0.025 0
0.195 0.025 0
0.205 0.025 0
0.215 0.025 0
0.225 0.025 0
0.235 0.025 0
0.245 0.025 0
0.255 0.025 0
0.265 0.025 0
0.275 0.025 0
0.285 0.025 0
0.295 0.025 0
0.305 0.025 0
0.315 0.025 0
0.325 0.025 0
0.335 0.025 0
0.345 0.025 0
0.355 0.025 0
0.365 0.025 0
0.375 0.025 0
0.385 0.025 0
0.395 0.025 0
0.405 0.025 0
0.415 0.025 0
0.425 0.025 0
0.435 0.025 0
0.445 0.025 0
0.455 0.025 0
0.465 0.025 0
0.475 0.025 0
0.485 0.025 0
0.495 0.025 0
0.505 0.025 0
0.515 0.025 0
0.525 0.025 0
0.535 0.025 0
0.545 0.025 0
0.555 0.025 0
0.565 0.025 0
0.575 0.025 0
0.585 0.025 0
0.595 0.025 0
0.605 0.025 0
0.615 0.025 0
0.625 0.025 0
0.635 0.025 0
0.645 0.025 0
0.655 0.025 0
0.665 0.025 0
0.675 0.025 0
0.685 0.025 0
0.695 0.025 0
0.705 0.025 0
0.715 0.025 0
0.725 0.025 0
0.735 0.025 0
0.745 0.025 0
0.755 0.025 0
0.765 0.025 0
0.775 0.025 0
0.785 0.025 0
0.795 0.025 0
0.805 0.025 0
0.815 0.025 0
0.825 0.025 0
0.835 0.025 0
0.845 0.025 0
0.855 0.025 0
0.865 0.025 0
0.875 0.025 0
0.885 0.025 0
0.895 0.025 0
0.905 0.025 0
0.915 0.025 0
0.925 0.025 0
0.935 0.025 0
0.945 0.025 0
0.955 0.025 0
0.965 0.025 0
0.975 0.025 0
0.985 0.025 0
0.995 0.025 0
1.005 0.025 0
1.015 0.025 0
1.025 0.025 0
1.035 0.025 0
1.045 0.025 0
1.055 0.025 0
1.065 0.025 0
1.075 0.025 0
1.085 0.025 0
1.095 0.025 0
1.105 0.025 0
1.115 0.025 0
1.125 0.025 0
1.135 0.025 0
1.145 0.025 0
1.155 0.025 0
1.165 0.025 0
1.175 0.025 0
1.185 0.025 0
1.195 0.025 0
1.205 0.025 0
1.215 0.025 0
1.225 0.025 0
1.235 0.025 0
1.245 0.025 0
1.255 0.025 0
1.265 0.025 0
1.275 0.025 0
1.285 0.025 0
1.295 0.025 0
1.305 0.025 0
1.315 0.025 0
1.325 0.025 0
1.335 0.025 0
1.345 0.025 0
1.355 0.025 0
1.365 0.025 0
1.375 0.025 0
1.385 0.025 0
1.395 0.025 0
1.405 0.025 0
1.415 0.025 0
1.425 0.025 0
1.435 0.025 0
1.445 0.025 0
1.455 0.025 0
1.465 0.025 0
1.475 0.025 0
1.485 0.025 0
1.495 0.025 0
1.505 0.025 0
1.515 0.025 0
1.525 0.025 0
1.535 0.025 0
1.545 0.025 0
1.555 0.025 0
1.565 0.025 0
1.575 0.025 0
1.585 0.025 0
1.595 0.025 0
1.605 0.025 0
1.615 0.025 0
1.625 0.025 0
1.635 0.025 0
1.645 0.025 0
1.655 0.025 0
1.665 0.025 0
1.675 0.025 0
1.685 0.025 0
1.695 0.025 0
1.705 0.025 0
1.715 0.025 0
1.725 0.025 0
1.735 0.025 0
1.745 0.025 0
1.755 0.025 0
1.765 0.025 0
1.775 0.025 0
1.785 0.025 0
1.795 0.025 0
1.805 0.025 0
1.815 0.025 0
1.825 0.025 0
1.835 0.025 0
1.845 0.025 0
1.855 0.025 0
1.865 0.025 0
1.875 0.025 0
1.885 0.025 0
1.895 0.025 0
1.905 0.025 0
1.915 0.025 0
1.925 0.025 0
1.935 0.025 0
1.945 0.025 0
1.955 0.025 0
1.965 0.025 0
1.975 0.025 0
1.985 0.025 0
1.995 0.025 0
0.005 0.035 0
0.015 0.035 0
0.025 0.035 0
0.035 0.035 0
0.045 0.035 0
0.055 0.035 0
0.065 0.035 0
0.075 0.035 0
0.085 0.035 0
0.095 0.035 0
0.105 0.035 0
0.115 0.035 0
0.125 0.035 0
0.135 0.035 0
0.145 0.035 0
0.155 0.035 0
0.165 0.035 0
0.175 0.035 0
0.185 0.035 0
0.195 0.035 0
0.205 0.035 0
0.215 0.035 0
0.225 0.035 0
0.235 0.035 0
0.245 0.035 0
0.255 0.035 0
0.265 0.035 0
0.275 0.035 0
0.285 0.035 0
0.295 0.035 0
0.305 0.035 0
0.315 0.035 0
0.325 0.035 0
0.335 0.035 0
0.345 0.035 0
0.355 0.035 0
0.365 0.035 0
0.375 0.035 0
0.385 0.035 0
0.395 0.035 0
0.405 0.035 0
0.415 0.035 0
0.425 0.035 0
0.435 0.035 0
0.445 0.035 0
0.455 0.035 0
0.465 0.035 0
0.475 0.035 0
0.485 0.035 0
0.495 0.035 0
0.505 0.035 0
0.515 0.035 0
0.525 0.035 0
0.535 0.035 0
0.545 0.035 0
0.555 0.035 0
0.565 0.035 0
0.575 0.035 0
0.585 0.035 0
0.595 0.035 0
0.605 0.035 0
0.615 0.035 0
0.625 0.035 0
0.635 0.035 0
0.645 0.035 0
0.655 0.035 0
0.665 0.035 0
0.675 0.035 0
0.685 0.035 0
0.695 0.035 0
0.705 0.035 0
0.715 0.035 0
0.725 0.035 0
0.735 0.035 0
0.745 0.035 0
0.755 0.035 0
0.765 0.035 0
0.775 0.035 0
0.785 0.035 0
0.795 0.035 0
0.805 0.035 0
0.815 0.035 0
0.825 0.035 0
0.835 0.035 0
0.845 0.035 0
0.855 0.035 0
0.865 0.035 0
0.875 0.035 0
0.885 0.035 0
0.895 0.035 0
0.905 0.035 0
0.915 0.035 0
0.925 0.035 0
0.935 0.035 0
0.945 0.035 0
0.955 0.035 0
0.965 0.035 0
0.975 0.035 0
0.985 0.035 0
0.995 0.035 0
1.005 0.035 0
1.015 0.035 0
1.025 0.035 0
1.035 0.035 0
1.045 0.035 0
[...]
POINT_DATA 20000
VECTORS velocity float
0.955157 -2.37816e-05 0
0.917248 -5.34101e-05 0
0.885542 -8.77017e-05 0
0.859249 -0.000125105 0
0.837601 -0.000165364 0
0.819886 -0.000206998 0
0.805474 -0.00025061 0
0.793818 -0.000294617 0
0.784454 -0.000340335 0
0.776997 -0.000385959 0
0.771127 -0.000433372 0
0.766581 -0.000480493 0
0.763145 -0.000529645 0
0.760649 -0.000578466 0
0.758952 -0.000629608 0
0.757944 -0.000680452 0
0.757535 -0.000733884 0
0.757654 -0.000787071 0
0.758245 -0.000843042 0
0.759263 -0.000898803 0
0.760675 -0.000957443 0
0.762452 -0.00101586 0
0.764574 -0.00107712 0
0.767024 -0.00113807 0
0.769792 -0.00120169 0
0.772867 -0.00126482 0
0.776244 -0.00133028 0
0.779919 -0.00139496 0
0.783888 -0.00146145 0
0.78815 -0.00152672 0
0.792704 -0.00159312 0
0.797549 -0.00165774 0
0.802686 -0.00172261 0
0.808113 -0.00178499 0
0.813832 -0.00184659 0
0.81984 -0.00190485 0
0.826138 -0.00196117 0
0.832722 -0.00201318 0
0.839591 -0.00206199 0
0.846741 -0.00210547 0
0.854167 -0.00214443 0
0.861863 -0.00217703 0
0.869823 -0.0022038 0
0.878039 -0.00222325 0
0.886501 -0.00223567 0
0.895198 -0.00223992 0
0.904118 -0.00223611 0
0.913248 -0.00222349 0
0.922573 -0.00220204 0
0.932078 -0.00217142 0
0.941745 -0.0021315 0
0.951556 -0.00208236 0
0.961492 -0.00202382 0
0.971533 -0.00195641 0
0.981658 -0.00187984 0
0.991844 -0.00179512 0
1.00207 -0.00170188 0
1.01231 -0.00160156 0
1.02255 -0.00149368 0
1.03276 -0.00138013 0
1.04291 -0.00126028 0
1.05299 -0.00113642 0
1.06297 -0.00100774 0
1.07282 -0.000876908 0
1.08252 -0.000742856 0
1.09206 -0.000608645 0
1.1014 -0.000472853 0
1.11053 -0.000338926 0
1.11943 -0.000205016 0
1.12806 -7.49529e-05 0
1.13643 5.36179e-05 0
1.1445 0.000176474 0
1.15226 0.000296562 0
1.15969 0.00040924 0
1.16678 0.000518132 0
1.17351 0.000618145 0
1.17987 0.000713659 0
1.18584 0.000799085 0
1.19142 0.00087964 0
1.1966 0.000949184 0
1.20137 0.00101384 0
1.20572 0.00106686 0
1.20965 0.00111534 0
1.21316 0.00115185 0
1.21624 0.0011845 0
1.2189 0.00120513 0
1.22114 0.00122291 0
1.22297 0.00122888 0
1.22438 0.00123325 0
1.2254 0.00122624 0
1.22603 0.0012191 0
1.22628 0.00120115 0
1.22617 0.00118469 0
1.22571 0.00115812 0
1.22492 0.00113469 0
1.22382 0.0011019 0
1.22243 0.00107389 0
1.22078 0.00103726 0
1.21887 0.00100695 0
1.21674 0.000968706 0
1.2144 0.000938165 0
1.21189 0.000900293 0
1.20922 0.000871273 0
1.20641 0.000835425 0
1.20349 0.000809324 0
1.20047 0.000776784 0
1.19739 0.00075461 0
1.19425 0.000726283 0
1.19107 0.000708665 0
1.18787 0.000685094 0
1.18467 0.00067231 0
1.18148 0.00065372 0
1.17831 0.00064575 0
1.17517 0.000632093 0
1.17208 0.000628679 0
1.16903 0.000619705 0
1.16604 0.000620411 0
1.16312 0.00061572 0
1.16025 0.000619999 0
1.15746 0.000619101 0
1.15474 0.000626344 0
1.15208 0.000628707 0
1.1495 0.00063829 0
1.14699 0.000643379 0
1.14455 0.000654698 0
1.14218 0.000662 0
1.13988 0.000674497 0
1.13763 0.000683542 0
1.13545 0.000696721 0
1.13332 0.000707094 0
1.13124 0.000720528 0
1.12922 0.000731874 0
1.12724 0.000745212 0
1.1253 0.000757234 0
1.1234 0.000770195 0
1.12153 0.000782651 0
1.11969 0.000795025 0
1.11788 0.000807722 0
1.1161 0.000819359 0
1.11433 0.000832146 0
1.11258 0.000842951 0
1.11084 0.000855711 0
1.10911 0.000865634 0
1.10739 0.000878275 0
1.10568 0.000887306 0
1.10396 0.000899754 0
1.10225 0.000907912 0
1.10054 0.000920104 0
1.09882 0.000927433 0
1.0971 0.000939312 0
1.09537 0.000945869 0
1.09363 0.000957379 0
1.09188 0.000963235 0
1.09012 0.000974314 0
1.08835 0.000979542 0
1.08656 0.000990122 0
1.08477 0.000994798 0
1.08295 0.0010048 0
1.08113 0.00100899 0
1.07929 0.00101834 0
1.07743 0.00102211 0
1.07557 0.00103068 0
1.07368 0.00103408 0
1.07178 0.00104179 0
1.06987 0.00104485 0
1.06795 0.00105157 0
1.06601 0.0010543 0
1.06406 0.0010599 0
1.0621 0.00106231 0
1.06013 0.00106665 0
1.05815 0.00106871 0
1.05617 0.00107164 0
1.05418 0.00107329 0
1.05218 0.00107467 0
1.05018 0.00107584 0
1.04819 0.0010755 0
1.04619 0.00107608 0
1.0442 0.00107387 0
1.04222 0.00107373 0
1.04024 0.00106948 0
1.03828 0.00106845 0
1.03634 0.001062 0
1.03441 0.00105988 0
1.0325 0.00105105 0
1.03063 0.00104763 0
1.02878 0.00103624 0
1.02696 0.00103129 0
1.02519 0.00101717 0
1.02345 0.00101044 0
1.02177 0.00099344 0
1.02014 0.000984742 0
1.01857 0.000964829 0
1.01706 0.000954067 0
1.01562 0.000931528 0
1.01426 0.000918932 0
1.01298 0.000894906 0
1.0118 0.000881554 0
1.01073 0.000859353 0
1.0098 0.000848494 0
1.00916 0.00083674 0
0.955141 -7.12281e-05 0
0.917221 -0.000160276 0
0.885505 -0.00026267 0
0.859205 -0.000375413 0
0.837552 -0.00049527 0
0.819833 -0.000621137 0
0.805417 -0.0007506 0
0.793758 -0.000884028 0
0.784392 -0.00101938 0
0.776933 -0.00115807 0
0.77106 -0.00129813 0
0.766511 -0.00144169 0
0.763074 -0.00158664 0
0.760575 -0.00173561 0
0.758876 -0.00188628 0
0.757865 -0.00204158 0
0.757453 -0.00219894 0
0.757569 -0.00236146 0
0.758157 -0.00252633 0
0.759172 -0.0026967 0
0.760581 -0.00286954 0
0.762355 -0.00304793 0
0.764474 -0.00322868 0
0.766922 -0.00341469 0
0.769687 -0.00360262 0
0.77276 -0.00379511 0
0.776136 -0.00398872 0
0.779809 -0.00418574 0
0.783777 -0.00438263 0
0.788039 -0.00458132 0
0.792593 -0.00477819 0
0.797439 -0.00497472 0
0.802577 -0.00516727 0
0.808007 -0.00535686 0
0.813729 -0.00553987 0
0.819742 -0.00571686 0
0.826044 -0.00588427 0
0.832635 -0.00604224 0
0.839511 -0.00618738 0
0.846669 -0.00631943 0
0.854104 -0.00643525 0
0.86181 -0.00653432 0
0.869781 -0.00661381 0
0.878009 -0.00667305 0
0.886483 -0.00670965 0
0.895193 -0.0067229 0
0.904126 -0.00671098 0
0.91327 -0.00667324 0
0.92261 -0.00660852 0
0.932129 -0.00651636 0
0.94181 -0.00639636 0
0.951635 -0.00624829 0
0.961584 -0.00607258 0
0.971637 -0.00586929 0
0.981774 -0.00563968 0
0.991972 -0.00538411 0
1.00221 -0.00510467 0
1.01246 -0.00480198 0
1.0227 -0.00447889 0
1.03292 -0.00413622 0
1.04307 -0.00377751 0
1.05315 -0.00340365 0
1.06313 -0.00301881 0
1.07298 -0.00262379 0
1.08268 -0.00222327 0
1.09221 -0.00181784 0
1.10155 -0.00141261 0
1.11067 -0.00100776 0
1.11955 -0.000608731 0
1.12818 -0.000215175 0
1.13653 0.000167221 0
1.14458 0.000539508 0
1.15233 0.000895783 0
1.15974 0.00123795 0
1.16681 0.00155992 0
1.17352 0.00186459 0
1.17986 0.00214566 0
1.18581 0.00240715 0
1.19137 0.00264255 0
1.19652 0.00285707 0
1.20127 0.00304395 0
1.20559 0.00320967 0
1.2095 0.00334716 0
1.21299 0.0034642 0
1.21605 0.00355334 0
1.21868 0.0036237 0
1.2209 0.00366734 0
1.22271 0.00369469 0
1.2241 0.00369723 0
1.2251 0.00368666 0
1.22571 0.00365378 0
1.22594 0.00361147 0
1.22581 0.00354974 0
1.22534 0.00348257 0
1.22454 0.0033991 0
1.22343 0.00331425 0
1.22203 0.00321624 0
1.22036 0.00312077 0
1.21845 0.00301512 0
1.21631 0.00291562 0
1.21396 0.00280861 0
1.21144 0.00271088 0
1.20876 0.0026079 0
1.20595 0.00251674 0
1.20302 0.0024221 0
1.20001 0.00234118 0
1.19692 0.00225807 0
1.19377 0.00218992 0
1.19059 0.0021204 0
1.18739 0.00206644 0
1.18419 0.00201153 0
1.181 0.00197224 0
1.17783 0.00193208 0
1.17469 0.0019071 0
1.17159 0.00188113 0
1.16854 0.0018695 0
1.16555 0.00185661 0
1.16262 0.00185695 0
1.15976 0.0018557 0
1.15696 0.00186635 0
1.15424 0.0018751 0
1.15158 0.00189429 0
1.149 0.00191135 0
1.14649 0.00193732 0
1.14405 0.00196102 0
1.14168 0.0019921 0
1.13937 0.00202092 0
1.13712 0.00205557 0
1.13494 0.00208813 0
1.13281 0.00212502 0
1.13073 0.00216012 0
1.1287 0.00219813 0
1.12672 0.00223477 0
1.12478 0.00227297 0
1.12288 0.00231034 0
1.12101 0.002348 0
1.11917 0.00238545 0
1.11736 0.00242202 0
1.11557 0.00245906 0
1.11381 0.00249415 0
1.11205 0.00253043 0
1.11032 0.00256376 0
1.10859 0.00259902 0
1.10687 0.00263046 0
1.10516 0.00266452 0
1.10344 0.002694 0
1.10173 0.00272675 0
1.10002 0.00275428 0
1.0983 0.00278563 0
1.09658 0.00281125 0
1.09485 0.00284115 0
1.09311 0.00286493 0
1.09137 0.00289335 0
1.08961 0.00291537 0
1.08784 0.00294224 0
1.08606 0.00296259 0
1.08427 0.00298784 0
1.08246 0.00300658 0
1.08064 0.00303012 0
1.0788 0.0030473 0
1.07695 0.003069 0
1.07508 0.00308463 0
1.0732 0.00310433 0
1.07131 0.00311838 0
1.0694 0.00313589 0
1.06748 0.0031483 0
1.06555 0.00316338 0
1.0636 0.00317403 0
1.06165 0.00318641 0
1.05968 0.00319513 0
1.05771 0.00320449 0
1.05573 0.00321107 0
1.05375 0.00321707 0
1.05176 0.00322121 0
1.04976 0.00322347 0
1.04777 0.00322483 0
1.04578 0.00322293 0
1.0438 0.00322111 0
1.04182 0.00321458 0
1.03985 0.00320912 0
1.0379 0.00319746 0
1.03596 0.00318784 0
1.03404 0.00317052 0
1.03214 0.00315614 0
1.03026 0.00313259 0
1.02842 0.00311283 0
1.02661 0.00308245 0
1.02484 0.00305666 0
1.02311 0.00301889 0
1.02143 0.00298647 0
1.01981 0.0029409 0
1.01824 0.00290149 0
1.01674 0.0028482 0
1.01531 0.00280216 0
1.01395 0.0027426 0
1.01268 0.00269217 0
1.0115 0.00263138 0
1.01043 0.00258371 0
1.00951 0.00253572 0
1.00887 0.00251005 0
0.955111 -0.0001186 0
0.917166 -0.000266659 0
0.885431 -0.000437344 0
0.859117 -0.000624572 0
0.837453 -0.000824593 0
0.819725 -0.00103337 0
0.805302 -0.00124968 0
0.793638 -0.00147075 0
0.784267 -0.00169717 0
0.776803 -0.00192677 0
0.770926 -0.0021613 0
0.766373 -0.00239879 0
0.762931 -0.00264175 0
0.760427 -0.00288812 0
0.758723 -0.00314084 0
0.757706 -0.00339766 0
0.757289 -0.00366174 0
0.757399 -0.00393056 0
0.757981 -0.00420733 0
0.758991 -0.00448926 0
0.760393 -0.00477947 0
0.762162 -0.00507487 0
0.764275 -0.00537837 0
0.766718 -0.00568662 0
0.769478 -0.00600217 0
0.772547 -0.00632142 0
0.775918 -0.00664649 0
0.779588 -0.00697352 0
0.783555 -0.00730412 0
0.787815 -0.00763417 0
0.79237 -0.00796472 0
0.797218 -0.00829144 0
0.802359 -0.00861474 0
0.807794 -0.00893014 0
0.813523 -0.00923743 0
0.819544 -0.00953201 0
0.825857 -0.00981313 0
0.83246 -0.0100762 0
0.83935 -0.0103199 0
0.846524 -0.0105398 0
0.853977 -0.0107343 0
0.861704 -0.0108993 0
0.869696 -0.0110328 0
0.877947 -0.0111312 0
0.886446 -0.0111928 0
0.895182 -0.0112144 0
0.904143 -0.0111944 0
0.913314 -0.0111308 0
0.922682 -0.0110223 0
0.932229 -0.0108677 0
0.941938 -0.0106664 0
0.951791 -0.0104184 0
0.961767 -0.0101237 0
0.971845 -0.00978348 0
0.982006 -0.00939845 0
0.992225 -0.00897098 0
1.00248 -0.00850249 0
1.01275 -0.0079965 0
1.02301 -0.007455 0
1.03323 -0.00688254 0
1.0434 -0.00628152 0
1.05348 -0.0056574 0
1.06346 -0.00501278 0
1.0733 -0.00435386 0
1.083 -0.0036832 0
1.09252 -0.00300753 0
1.10184 -0.00232914 0
1.11094 -0.00165514 0
1.1198 -0.000987281 0
1.1284 -0.00033287 0
1.13673 0.000307088 0
1.14475 0.000925225 0
1.15246 0.00152152 0
1.15984 0.00208862 0
1.16687 0.00262769 0
1.17353 0.00313147 0
1.17983 0.00360244 0
1.18574 0.00403348 0
1.19125 0.00442853 0
1.19636 0.00478056 0
1.20106 0.00509509 0
1.20534 0.00536513 0
1.2092 0.00559784 0
1.21264 0.00578618 0
1.21565 0.00593896 0
1.21824 0.00604899 0
1.22042 0.00612668 0
1.22218 0.00616458 0
1.22353 0.00617463 0
1.22449 0.00614893 0
1.22507 0.00610083 0
1.22526 0.00602187 0
1.22511 0.00592663 0
1.2246 0.00580588 0
1.22377 0.00567528 0
1.22264 0.00552473 0
1.22121 0.0053707 0
1.21952 0.00520211 0
1.21759 0.00503606 0
1.21543 0.00486041 0
1.21308 0.00469268 0
1.21054 0.00451966 0
1.20785 0.00435906 0
1.20503 0.0041967 0
1.20209 0.00405028 0
1.19907 0.00390476 0
1.19597 0.00377766 0
1.19282 0.00365325 0
1.18964 0.00354874 0
1.18643 0.00344793 0
1.18323 0.00336756 0
1.18003 0.00329124 0
1.17685 0.0032351 0
1.17371 0.00318282 0
1.17061 0.00314983 0
1.16756 0.00312013 0
1.16457 0.00310832 0
1.16163 0.00309904 0
1.15877 0.00310589 0
1.15597 0.0031144 0
1.15324 0.00313708 0
1.15058 0.00316057 0
1.148 0.00319616 0
1.14548 0.00323182 0
1.14304 0.00327748 0
1.14066 0.00332263 0
1.13835 0.00337572 0
1.1361 0.00342792 0
1.13391 0.00348609 0
1.13178 0.00354319 0
1.1297 0.00360441 0
1.12767 0.00366458 0
1.12569 0.00372716 0
1.12374 0.00378889 0
1.12184 0.00385146 0
1.11997 0.00391355 0
1.11813 0.00397505 0
1.11632 0.00403656 0
1.11453 0.00409621 0
1.11276 0.00415645 0
1.11101 0.0042137 0
1.10927 0.00427218 0
1.10754 0.00432667 0
1.10583 0.00438305 0
1.10411 0.00443459 0
1.1024 0.00448867 0
1.10069 0.00453717 0
1.09898 0.00458882 0
1.09727 0.0046343 0
1.09555 0.00468345 0
1.09382 0.00472596 0
1.09209 0.00477257 0
1.09035 0.0048122 0
1.0886 0.00485622 0
1.08683 0.00489307 0
1.08506 0.00493445 0
1.08327 0.00496859 0
1.08147 0.00500723 0
1.07965 0.00503871 0
1.07782 0.00507449 0
1.07598 0.0051033 0
1.07412 0.00513602 0
1.07225 0.0051621 0
1.07036 0.00519152 0
1.06846 0.00521474 0
1.06655 0.00524056 0
1.06463 0.00526072 0
1.06269 0.00528255 0
1.06075 0.00529937 0
1.05879 0.00531677 0
1.05683 0.00532989 0
1.05486 0.00534234 0
1.05288 0.00535131 0
1.05091 0.00535823 0
1.04892 0.00536249 0
1.04694 0.00536324 0
1.04497 0.00536217 0
1.04299 0.00535601 0
1.04103 0.00534889 0
1.03907 0.00533503 0
1.03712 0.00532102 0
1.0352 0.00529861 0
1.03329 0.00527679 0
1.0314 0.00524489 0
1.02954 0.00521426 0
1.02771 0.00517188 0
1.02591 0.0051314 0
1.02415 0.00507754 0
1.02243 0.00502616 0
1.02077 0.00495994 0
1.01915 0.00489685 0
1.01759 0.00481785 0
1.0161 0.00474295 0
1.01468 0.00465209 0
1.01333 0.00456729 0
1.01207 0.00446909 0
1.0109 0.00438159 0
1.00984 0.00428978 0
1.00893 0.00422011 0
1.00829 0.00417109 0
0.955065 -0.000165663 0
0.917084 -0.000372646 0
0.885321 -0.000610852 0
0.858986 -0.000872764 0
0.837305 -0.00115169 0
0.819564 -0.00144396 0
0.805131 -0.00174539 0
0.793458 -0.00205512 0
0.78408 -0.00237045 0
0.776609 -0.00269239 0
0.770725 -0.00301891 0
0.766165 -0.00335219 0
0.762716 -0.00369039 0
0.760205 -0.00403637 0
0.758493 -0.00438819 0
0.757469 -0.00474908 0
0.757043 -0.00511684 0
0.757144 -0.00549479 0
0.757717 -0.00588043 0
0.758718 -0.006277 0
0.760111 -0.00668163 0
0.761871 -0.00709731 0
0.763976 -0.0075208 0
0.76641 -0.00795471 0
0.769163 -0.00839539 0
0.772225 -0.00884494 0
0.775591 -0.00929931 0
0.779257 -0.00975996 0
0.78322 -0.0102224 0
0.787479 -0.0106875 0
0.792034 -0.0111503 0
0.796885 -0.0116108 0
0.802031 -0.0120638 0
0.807473 -0.0125085 0
0.813211 -0.0129394 0
0.819245 -0.0133549 0
0.825573 -0.0137493 0
0.832195 -0.0141203 0
0.839106 -0.0144624 0
0.846305 -0.0147726 0
0.853785 -0.0150456 0
0.861541 -0.0152783 0
0.869567 -0.0154655 0
0.877853 -0.0156043 0
0.886389 -0.0156902 0
0.895164 -0.0157205 0
0.904165 -0.0156917 0
0.913379 -0.0156016 0
0.922789 -0.015448 0
0.932378 -0.0152295 0
0.942129 -0.0149453 0
0.952023 -0.014595 0
0.962039 -0.0141792 0
0.972155 -0.0136989 0
0.98235 -0.0131561 0
0.992602 -0.0125529 0
1.00289 -0.011893 0
1.01318 -0.0111794 0
1.02346 -0.0104173 0
1.0337 -0.00961035 0
1.04387 -0.00876519 0
1.05396 -0.00788602 0
1.06394 -0.00698041 0
1.07378 -0.00605283 0
1.08346 -0.00511161 0
1.09297 -0.00416112 0
1.10227 -0.00321016 0
1.11134 -0.00226268 0
1.12017 -0.0013277 0
1.12873 -0.000408395 0
1.13701 0.000486215 0
1.14499 0.001354 0
1.15265 0.00218614 0
1.15997 0.00298184 0
1.16694 0.00373259 0
1.17354 0.00443914 0
1.17977 0.0050934 0
1.18562 0.00569785 0
1.19106 0.00624481 0
1.1961 0.00673863 0
1.20073 0.00717204 0
1.20494 0.00755134 0
1.20873 0.00786958 0
1.2121 0.00813502 0
1.21504 0.00834093 0
1.21757 0.00849749 0
1.21968 0.00859804 0
1.22138 0.00865456 0
1.22267 0.00866029 0
1.22357 0.00862886 0
1.22409 0.00855317 0
1.22424 0.00844832 0
1.22403 0.00830663 0
1.22348 0.00814443 0
1.22261 0.00795326 0
1.22144 0.00775038 0
1.21998 0.0075264 0
1.21826 0.0072992 0
1.2163 0.00705831 0
1.21412 0.006822 0
1.21174 0.0065786 0
1.20918 0.00634652 0
1.20647 0.00611292 0
1.20364 0.0058961 0
1.20069 0.00568212 0
1.19765 0.00548899 0
1.19454 0.00530183 0
1.19139 0.0051382 0
1.18819 0.00498247 0
1.18498 0.00485162 0
1.18177 0.00472956 0
1.17857 0.00463259 0
1.17539 0.00454442 0
1.17224 0.00448058 0
1.16914 0.0044249 0
1.16608 0.00439203 0
1.16308 0.00436624 0
1.16015 0.0043612 0
1.15727 0.00436192 0
1.15447 0.00438097 0
1.15174 0.00440436 0
1.14908 0.0044435 0
1.14649 0.00448564 0
1.14397 0.00454086 0
1.14152 0.00459789 0
1.13913 0.0046654 0
1.13682 0.00473374 0
1.13456 0.00481009 0
1.13237 0.00488655 0
1.13023 0.00496869 0
1.12815 0.0050505 0
1.12612 0.00513585 0
1.12413 0.00522069 0
1.12218 0.00530715 0
1.12028 0.00539313 0
1.1184 0.005479 0
1.11656 0.00556465 0
1.11475 0.00564867 0
1.11296 0.00573287 0
1.11119 0.0058141 0
1.10944 0.00589603 0
1.1077 0.00597384 0
1.10597 0.00605295 0
1.10426 0.00612695 0
1.10255 0.00620288 0
1.10084 0.00627286 0
1.09913 0.00634539 0
1.09742 0.0064113 0
1.09572 0.00648031 0
1.094 0.00654216 0
1.09228 0.00660761 0
1.09055 0.00666549 0
1.08882 0.00672732 0
1.08707 0.00678133 0
1.08532 0.00683952 0
1.08355 0.00688975 0
1.08177 0.00694422 0
1.07998 0.00699071 0
1.07817 0.00704133 0
1.07635 0.00708408 0
1.07452 0.00713067 0
1.07267 0.0071696 0
1.07081 0.00721187 0
1.06894 0.00724683 0
1.06706 0.00728442 0
1.06516 0.00731514 0
1.06325 0.0073476 0
1.06132 0.00737372 0
1.05939 0.0074005 0
1.05745 0.00742155 0
1.05551 0.007442 0
1.05355 0.00745737 0
1.05159 0.00747075 0
1.04963 0.00747975 0
1.04767 0.00748519 0
1.0457 0.00748698 0
1.04374 0.00748355 0
1.04179 0.00747717 0
1.03984 0.00746381 0
1.0379 0.00744817 0
1.03597 0.00742373 0
1.03406 0.00739761 0
1.03217 0.00736083 0
1.0303 0.00732291 0
1.02845 0.00727243 0
1.02664 0.00722126 0
1.02486 0.00715568 0
1.02311 0.0070898 0
1.02142 0.00700775 0
1.01976 0.00692583 0
1.01817 0.00682629 0
1.01662 0.0067276 0
1.01515 0.00661065 0
1.01374 0.00649617 0
1.01241 0.00636495 0
1.01116 0.0062403 0
1.01 0.00610592 0
1.00895 0.00598869 0
1.00805 0.00588234 0
1.00742 0.00581946 0
0.955003 -0.000212456 0
0.916974 -0.000477707 0
0.885175 -0.00078332 0
0.858811 -0.00111874 0
0.837108 -0.00147677 0
0.819351 -0.00185086 0
0.804904 -0.00223799 0
0.793219 -0.00263428 0
0.783831 -0.00303954 0
0.776351 -0.00345133 0
0.770458 -0.00387128 0
0.765889 -0.00429757 0
0.76243 -0.00473287 0
0.759909 -0.00517549 0
0.758187 -0.00562866 0
0.757152 -0.00609055 0
0.756714 -0.00656457 0
0.756804 -0.0070486 0
0.757365 -0.00754601 0
0.758354 -0.00805426 0
0.759735 -0.00857649 0
0.761482 -0.0091097 0
0.763575 -0.00965661 0
0.765999 -0.0102137 0
0.768741 -0.0107832 0
0.771794 -0.011361 0
0.775153 -0.0119485 0
0.778812 -0.0125411 0
0.782771 -0.0131395 0
0.787028 -0.0137384 0
0.791584 -0.0143375 0
0.796437 -0.0149311 0
0.801589 -0.0155178 0
0.807041 -0.0160915 0
0.812792 -0.0166499 0
0.818842 -0.0171862 0
0.825191 -0.0176976 0
0.831837 -0.0181769 0
0.838777 -0.0186204 0
0.846008 -0.0190213 0
0.853524 -0.0193753 0
0.861321 -0.0196758 0
0.86939 -0.0199185 0
0.877722 -0.0200974 0
0.886308 -0.0202084 0
0.895135 -0.0202466 0
0.904191 -0.0202086 0
0.91346 -0.0200906 0
0.922927 -0.0198904 0
0.932573 -0.0196059 0
0.94238 -0.0192359 0
0.952328 -0.0187805 0
0.962396 -0.0182399 0
0.972563 -0.0176161 0
0.982805 -0.0169109 0
0.993099 -0.0161283 0
1.00342 -0.0152716 0
1.01375 -0.0143466 0
1.02405 -0.013358 0
1.03431 -0.0123132 0
1.0445 -0.0112178 0
1.05459 -0.0100807 0
1.06457 -0.00890815 0
1.0744 -0.00770993 0
1.08407 -0.00649251 0
1.09355 -0.00526636 0
1.10282 -0.00403767 0
1.11186 -0.00281722 0
1.12064 -0.00161051 0
1.12915 -0.000428311 0
1.13737 0.000724975 0
1.14528 0.00183887 0
1.15287 0.0029104 0
1.16012 0.00392961 0
1.16701 0.00489525 0
1.17353 0.00579802 0
1.17968 0.00663866 0
1.18543 0.00740861 0
1.19078 0.00811074 0
1.19573 0.00873724 0
1.20026 0.00929325 0
1.20438 0.00977166 0
1.20808 0.0101799 0
1.21135 0.0105114 0
1.21421 0.010776 0
1.21664 0.0109674 0
1.21867 0.0110975 0
1.22028 0.0111605 0
1.22149 0.01117 0
1.22232 0.0111202 0
1.22276 0.0110265 0
1.22284 0.0108828 0
1.22257 0.0107058 0
1.22196 0.0104888 0
1.22104 0.0102497 0
1.21982 0.00998076 0
1.21831 0.00970075 0
1.21655 0.00940088 0
1.21455 0.00910022 0
1.21234 0.00878876 0
1.20993 0.00848568 0
1.20735 0.00817965 0
1.20462 0.00788966 0
1.20176 0.0076031 0
1.1988 0.00733855 0
1.19574 0.0070822 0
1.19262 0.00685206 0
1.18946 0.00663332 0
1.18625 0.00644329 0
1.18304 0.0062664 0
1.17982 0.00611917 0
1.17661 0.00598558 0
1.17342 0.00588128 0
1.17027 0.00579014 0
1.16716 0.00572684 0
1.1641 0.0056755 0
1.16109 0.00564979 0
1.15815 0.00563437 0
1.15527 0.00564183 0
1.15246 0.00565768 0
1.14972 0.00569336 0
1.14705 0.00573551 0
1.14446 0.00579429 0
1.14193 0.00585775 0
1.13948 0.00593468 0
1.13709 0.00601471 0
1.13477 0.00610517 0
1.13251 0.00619745 0