# vtk DataFile Version 3.0
Flow field at step 800
ASCII
DATASET STRUCTURED_GRID
DIMENSIONS 200 100 1
POINTS 20000 float
0.005 0.005 0
0.015 0.005 0
0.025 0.005 0
0.035 0.005 0
0.045 0.005 0
0.055 0.005 0
0.065 0.005 0
0.075 0.005 0
0.085 0.005 0
0.095 0.005 0
0.105 0.005 0
0.115 0.005 0
0.125 0.005 0
0.135 0.005 0
0.145 0.005 0
0.155 0.005 0
0.165 0.005 0
0.175 0.005 0
0.185 0.005 0
0.195 0.005 0
0.205 0.005 0
0.215 0.005 0
0.225 0.005 0
0.235 0.005 0
0.245 0.005 0
0.255 0.005 0
0.265 0.005 0
0.275 0.005 0
0.285 0.005 0
0.295 0.005 0
0.305 0.005 0
0.315 0.005 0
0.325 0.005 0
0.335 0.005 0
0.345 0.005 0
0.355 0.005 0
0.365 0.005 0
0.375 0.005 0
0.385 0.005 0
0.395 0.005 0
0.405 0.005 0
0.415 0.005 0
0.425 0.005 0
0.435 0.005 0
0.445 0.005 0
0.455 0.005 0
0.465 0.005 0
0.475 0.005 0
0.485 0.005 0
0.495 0.005 0
0.505 0.005 0
0.515 0.005 0
0.525 0.005 0
0.535 0.005 0
0.545 0.005 0
0.555 0.005 0
0.565 0.005 0
0.575 0.005 0
0.585 0.005 0
0.595 0.005 0
0.605 0.005 0
0.615 0.005 0
0.625 0.005 0
0.635 0.005 0
0.645 0.005 0
0.655 0.005 0
0.665 0.005 0
0.675 0.005 0
0.685 0.005 0
0.695 0.005 0
0.705 0.005 0
0.715 0.005 0
0.725 0.005 0
0.735 0.005 0
0.745 0.005 0
0.755 0.005 0
0.765 0.005 0
0.775 0.005 0
0.785 0.005 0
0.795 0.005 0
0.805 0.005 0
0.815 0.005 0
0.825 0.005 0
0.835 0.005 0
0.845 0.005 0
0.855 0.005 0
0.865 0.005 0
0.875 0.005 0
0.885 0.005 0
0.895 0.005 0
0.905 0.005 0
0.915 0.005 0
0.925 0.005 0
0.935 0.005 0
0.945 0.005 0
0.955 0.005 0
0.965 0.005 0
0.975 0.005 0
0.985 0.005 0
0.995 0.005 0
1.005 0.005 0
1.015 0.005 0
1.025 0.005 0
1.035 0.005 0
1.045 0.005 0
1.055 0.005 0
1.065 0.005 0
1.075 0.005 0
1.085 0.005 0
1.095 0.005 0
1.105 0.005 0
1.115 0.005 0
1.125 0.005 0
1.135 0.005 0
1.145 0.005 0
1.155 0.005 0
1.165 0.005 0
1.175 0.005 0
1.185 0.005 0
1.195 0.005 0
1.205 0.005 0
1.215 0.005 0
1.225 0.005 0
1.235 0.005 0
1.245 0.005 0
1.255 0.005 0
1.265 0.005 0
1.275 0.005 0
1.285 0.005 0
1.295 0.005 0
1.305 0.005 0
1.315 0.005 0
1.325 0.005 0
1.335 0.005 0
1.345 0.005 0
1.355 0.005 0
1.365 0.005 0
1.375 0.005 0
1.385 0.005 0
1.395 0.005 0
1.405 0.005 0
1.415 0.005 0
1.425 0.005 0
1.435 0.005 0
1.445 0.005 0
1.455 0.005 0
1.465 0.005 0
1.475 0.005 0
1.485 0.005 0
1.495 0.005 0
1.505 0.005 0
1.515 0.005 0
1.525 0.005 0
1.535 0.005 0
1.545 0.005 0
1.555 0.005 0
1.565 0.005 0
1.575 0.005 0
1.585 0.005 0
1.595 0.005 0
1.605 0.005 0
1.615 0.005 0
1.625 0.005 0
1.635 0.005 0
1.645 0.005 0
1.655 0.005 0
1.665 0.005 0
1.675 0.005 0
1.685 0.005 0
1.695 0.005 0
1.705 0.005 0
1.715 0.005 0
1.725 0.005 0
1.735 0.005 0
1.745 0.005 0
1.755 0.005 0
1.765 0.005 0
1.775 0.005 0
1.785 0.005 0
1.795 0.005 0
1.805 0.005 0
1.815 0.005 0
1.825 0.005 0
1.835 0.005 0
1.845 0.005 0
1.855 0.005 0
1.865 0.005 0
1.875 0.005 0
1.885 0.005 0
1.895 0.005 0
1.905 0.005 0
1.915 0.005 0
1.925 0.005 0
1.935 0.005 0
1.945 0.005 0
1.955 0.005 0
1.965 0.005 0
1.975 0.005 0
1.985 0.005 0
1.995 0.005 0
0.005 0.015 0
0.015 0.015 0
0.025 0.015 0
0.035 0.015 0
0.045 0.015 0
0.055 0.015 0
0.065 0.015 0
0.075 0.015 0
0.085 0.015 0
0.095 0.015 0
0.105 0.015 0
0.115 0.015 0
0.125 0.015 0
0.135 0.015 0
0.145 0.015 0
0.155 0.015 0
0.165 0.015 0
0.175 0.015 0
0.185 0.015 0
0.195 0.015 0
0.205 0.015 0
0.215 0.015 0
0.225 0.015 0
0.235 0.015 0
0.245 0.015 0
0.255 0.015 0
0.265 0.015 0
0.275 0.015 0
0.285 0.015 0
0.295 0.015 0
0.305 0.015 0
0.315 0.015 0
0.325 0.015 0
0.335 0.015 0
0.345 0.015 0
0.355 0.015 0
0.365 0.015 0
0.375 0.015 0
0.385 0.015 0
0.395 0.015 0
0.405 0.015 0
0.415 0.015 0
0.425 0.015 0
0.435 0.015 0
0.445 0.015 0
0.455 0.015 0
0.465 0.015 0
0.475 0.015 0
0.485 0.015 0
0.495 0.015 0
0.505 0.015 0
0.515 0.015 0
0.525 0.015 0
0.535 0.015 0
0.545 0.015 0
0.555 0.015 0
0.565 0.015 0
0.575 0.015 0
0.585 0.015 0
0.595 0.015 0
0.605 0.015 0
0.615 0.015 0
0.625 0.015 0
0.635 0.015 0
0.645 0.015 0
0.655 0.015 0
0.665 0.015 0
0.675 0.015 0
0.685 0.015 0
0.695 0.015 0
0.705 0.015 0
0.715 0.015 0
0.725 0.015 0
0.735 0.015 0
0.745 0.015 0
0.755 0.015 0
0.765 0.015 0
0.775 0.015 0
0.785 0.015 0
0.795 0.015 0
0.805 0.015 0
0.815 0.015 0
0.825 0.015 0
0.835 0.015 0
0.845 0.015 0
0.855 0.015 0
0.865 0.015 0
0.875 0.015 0
0.885 0.015 0
0.895 0.015 0
0.905 0.015 0
0.915 0.015 0
0.925 0.015 0
0.935 0.015 0
0.945 0.015 0
0.955 0.015 0
0.965 0.015 0
0.975 0.015 0
0.985 0.015 0
0.995 0.015 0
1.005 0.015 0
1.015 0.015 0
1.025 0.015 0
1.035 0.015 0
1.045 0.015 0
1.055 0.015 0
1.065 0.015 0
1.075 0.015 0
1.085 0.015 0
1.095 0.015 0
1.105 0.015 0
1.115 0.015 0
1.125 0.015 0
1.135 0.015 0
1.145 0.015 0
1.155 0.015 0
1.165 0.015 0
1.175 0.015 0
1.185 0.015 0
1.195 0.015 0
1.205 0.015 0
1.215 0.015 0
1.225 0.015 0
1.235 0.015 0
1.245 0.015 0
1.255 0.015 0
1.265 0.015 0
1.275 0.015 0
1.285 0.015 0
1.295 0.015 0
1.305 0.015 0
1.315 0.015 0
1.325 0.015 0
1.335 0.015 0
1.345 0.015 0
1.355 0.015 0
1.365 0.015 0
1.375 0.015 0
1.385 0.015 0
1.395 0.015 0
1.405 0.015 0
1.415 0.015 0
1.425 0.015 0
1.435 0.015 0
1.445 0.015 0
1.455 0.015 0
1.465 0.015 0
1.475 0.015 0
1.485 0.015 0
1.495 0.015 0
1.505 0.015 0
1.515 0.015 0
1.525 0.015 0
1.535 0.015 0
1.545 0.015 0
1.555 0.015 0
1.565 0.015 0
1.575 0.015 0
1.585 0.015 0
1.595 0.015 0
1.605 0.015 0
1.615 0.015 0
1.625 0.015 0
1.635 0.015 0
1.645 0.015 0
1.655 0.015 0
1.665 0.015 0
1.675 0.015 0
1.685 0.015 0
1.695 0.015 0
1.705 0.015 0
1.715 0.015 0
1.725 0.015 0
1.735 0.015 0
1.745 0.015 0
1.755 0.015 0
1.765 0.015 0
1.775 0.015 0
1.785 0.015 0
1.795 0.015 0
1.805 0.015 0
1.815 0.015 0
1.825 0.015 0
1.835 0.015 0
1.845 0.015 0
1.855 0.015 0
1.865 0.015 0
1.875 0.015 0
1.885 0.015 0
1.895 0.015 0
1.905 0.015 0
1.915 0.015 0
1.925 0.015 0
1.935 0.015 0
1.945 0.015 0
1.955 0.015 0
1.965 0.015 0
1.975 0.015 0
1.985 0.015 0
1.995 0.015 0
0.005 0.025 0
0.015 0.025 0
0.025 0.025 0
0.035 0.025 0
0.045 0.025 0
0.055 0.025 0
0.065 0.025 0
0.075 0.025 0
0.085 0.025 0
0.095 0.025 0
0.105 0.025 0
0.115 0.025 0
0.125 0.025 0
0.135 0.025 0
0.145 0.025 0
0.155 0.025 0
0.165 0.025 0
0.175 0.025 0
0.185 0.025 0
0.195 0.025 0
0.205 0.025 0
0.215 0.025 0
0.225 0.025 0
0.235 0.025 0
0.245 0.025 0
0.255 0.025 0
0.265 0.025 0
0.275 0.025 0
0.285 0.025 0
0.295 0.025 0
0.305 0.025 0
0.315 0.025 0
0.325 0.025 0
0.335 0.025 0
0.345 0.025 0
0.355 0.025 0
0.365 0.025 0
0.375 0.025 0
0.385 0.025 0
0.395 0.025 0
0.405 0.025 0
0.415 0.025 0
0.425 0.025 0
0.435 0.025 0
0.445 0.025 0
0.455 0.025 0
0.465 0.025 0
0.475 0.025 0
0.485 0.025 0
0.495 0.025 0
0.505 0.025 0
0.515 0.025 0
0.525 0.025 0
0.535 0.025 0
0.545 0.025 0
0.555 0.025 0
0.565 0.025 0
0.575 0.025 0
0.585 0.025 0
0.595 0.025 0
0.605 0.025 0
0.615 0.025 0
0.625 0.025 0
0.635 0.025 0
0.645 0.025 0
0.655 0.025 0
0.665 0.025 0
0.675 0.025 0
0.685 0.025 0
0.695 0.025 0
0.705 0.025 0
0.715 0.025 0
0.725 0.025 0
0.735 0.025 0
0.745 0.025 0
0.755 0.025 0
0.765 0.025 0
0.775 0.025 0
0.785 0.025 0
0.795 0.025 0
0.805 0.025 0
0.815 0.025 0
0.825 0.025 0
0.835 0.025 0
0.845 0.025 0
0.855 0.025 0
0.865 0.025 0
0.875 0.025 0
0.885 0.025 0
0.895 0.025 0
0.905 0.025 0
0.915 0.025 0
0.925 0.025 0
0.935 0.025 0
0.945 0.025 0
0.955 0.025 0
0.965 0.025 0
0.975 0.025 0
0.985 0.025 0
0.995 0.025 0
1.005 0.025 0
1.015 0.025 0
1.025 0.025 0
1.035 0.025 0
1.045 0.025 0
1.055 0.025 0
1.065 0.025 0
1.075 0.025 0
1.085 0.025 0
1.095 0.025 0
1.105 0.025 0
1.115 0.025 0
1.125 0.025 0
1.135 0.025 0
1.145 0.025 0
1.155 0.025 0
1.165 0.025 0
1.175 0.025 0
1.185 0.025 0
1.195 0.025 0
1.205 0.025 0
1.215 0.025 0
1.225 0.025 0
1.235 0.025 0
1.245 0.025 0
1.255 0.025 0
1.265 0.025 0
1.275 0.025 0
1.285 0.025 0
1.295 0.025 0
1.305 0.025 0
1.315 0.025 0
1.325 0.025 0
1.335 0.025 0
1.345 0.025 0
1.355 0.025 0
1.365 0.025 0
1.375 0.025 0
1.385 0.025 0
1.395 0.025 0
1.405 0.025 0
1.415 0.025 0
1.425 0.025 0
1.435 0.025 0
1.445 0.025 0
1.455 0.025 0
1.465 0.025 0
1.475 0.025 0
1.485 0.025 0
1.495 0.025 0
1.505 0.025 0
1.515 0.025 0
1.525 0.025 0
1.535 0.025 0
1.545 0.025 0
1.555 0.025 0
1.565 0.025 0
1.575 0.025 0
1.585 0.025 0
1.595 0.025 0
1.605 0.025 0
1.615 0.025 0
1.625 0.025 0
1.635 0.025 0
1.645 0.025 0
1.655 0.025 0
1.665 0.025 0
1.675 0.025 0
1.685 0.025 0
1.695 0.025 0
1.705 0.025 0
1.715 0.025 0
1.725 0.025 0
1.735 0.025 0
1.745 0.025 0
1.755 0.025 0
1.765 0.025 0
1.775 0.025 0
1.785 0.025 0
1.795 0.025 0
1.805 0.025 0
1.815 0.025 0
1.825 0.025 0
1.835 0.025 0
1.845 0.025 0
1.855 0.025 0
1.865 0.025 0
1.875 0.025 0
1.885 0.025 0
1.895 0.025 0
1.905 0.025 0
1.915 0.025 0
1.925 0.025 0
1.935 0.025 0
1.945 0.025 0
1.955 0.025 0
1.965 0.025 0
1.975 0.025 0
1.985 0.025 0
1.995 0.025 0
0.005 0.035 0
0.015 0.035 0
0.025 0.035 0
0.035 0.035 0
0.045 0.035 0
0.055 0.035 0
0.065 0.035 0
0.075 0.035 0
0.085 0.035 0
0.095 0.035 0
0.105 0.035 0
0.115 0.035 0
0.125 0.035 0
0.135 0.035 0
0.145 0.035 0
0.155 0.035 0
0.165 0.035 0
0.175 0.035 0
0.185 0.035 0
0.195 0.035 0
0.205 0.035 0
0.215 0.035 0
0.225 0.035 0
0.235 0.035 0
0.245 0.035 0
0.255 0.035 0
0.265 0.035 0
0.275 0.035 0
0.285 0.035 0
0.295 0.035 0
0.305 0.035 0
0.315 0.035 0
0.325 0.035 0
0.335 0.035 0
0.345 0.035 0
0.355 0.035 0
0.365 0.035 0
0.375 0.035 0
0.385 0.035 0
0.395 0.035 0
0.405 0.035 0
0.415 0.035 0
0.425 0.035 0
0.435 0.035 0
0.445 0.035 0
0.455 0.035 0
0.465 0.035 0
0.475 0.035 0
0.485 0.035 0
0.495 0.035 0
0.505 0.035 0
0.515 0.035 0
0.525 0.035 0
0.535 0.035 0
0.545 0.035 0
0.555 0.035 0
0.565 0.035 0
0.575 0.035 0
0.585 0.035 0
0.595 0.035 0
0.605 0.035 0
0.615 0.035 0
0.625 0.035 0
0.635 0.035 0
0.645 0.035 0
0.655 0.035 0
0.665 0.035 0
0.675 0.035 0
0.685 0.035 0
0.695 0.035 0
0.705 0.035 0
0.715 0.035 0
0.725 0.035 0
0.735 0.035 0
0.745 0.035 0
0.755 0.035 0
0.765 0.035 0
0.775 0.035 0
0.785 0.035 0
0.795 0.035 0
0.805 0.035 0
0.815 0.035 0
0.825 0.035 0
0.835 0.035 0
0.845 0.035 0
0.855 0.035 0
0.865 0.035 0
0.875 0.035 0
0.885 0.035 0
0.895 0.035 0
0.905 0.035 0
0.915 0.035 0
0.925 0.035 0
0.935 0.035 0
0.945 0.035 0
0.955 0.035 0
0.965 0.035 0
0.975 0.035 0
0.985 0.035 0
0.995 0.035 0
1.005 0.035 0
1.015 0.035 0
1.025 0.035 0
1.035 0.035 0
1.045 0.035 0
[...]
POINT_DATA 20000
VECTORS velocity float
0.982698 -2.75722e-05 0
0.967104 -6.37793e-05 0
0.952923 -0.000106786 0
0.939905 -0.000156537 0
0.927851 -0.000210285 0
0.916599 -0.000269393 0
0.906029 -0.000329934 0
0.89605 -0.000394959 0
0.886599 -0.000459137 0
0.877635 -0.000527399 0
0.869134 -0.000592821 0
0.861087 -0.000662352 0
0.853493 -0.000727336 0
0.846361 -0.000796805 0
0.839702 -0.00086029 0
0.833532 -0.000928905 0
0.827866 -0.000990351 0
0.822719 -0.00105774 0
0.818107 -0.001117 0
0.81404 -0.00118308 0
0.81053 -0.00124025 0
0.807582 -0.00130509 0
0.805202 -0.0013604 0
0.803392 -0.00142409 0
0.802152 -0.00147773 0
0.801479 -0.00154025 0
0.80137 -0.00159225 0
0.801816 -0.00165338 0
0.802812 -0.00170354 0
0.804349 -0.00176277 0
0.806417 -0.00181057 0
0.809005 -0.00186704 0
0.812102 -0.0019116 0
0.815695 -0.00196409 0
0.819774 -0.00200414 0
0.824323 -0.0020511 0
0.829331 -0.00208503 0
0.834783 -0.00212459 0
0.840664 -0.00215053 0
0.84696 -0.00218062 0
0.853654 -0.0021965 0
0.860732 -0.00221494 0
0.868175 -0.00221868 0
0.875967 -0.00222335 0
0.884089 -0.00221296 0
0.892522 -0.00220193 0
0.901246 -0.00217571 0
0.910241 -0.00214744 0
0.919484 -0.00210412 0
0.928956 -0.00205758 0
0.938631 -0.00199648 0
0.948487 -0.00193129 0
0.9585 -0.0018524 0
0.968645 -0.00176886 0
0.978897 -0.00167292 0
0.98923 -0.00157211 0
0.999619 -0.00146058 0
1.01004 -0.00134429 0
1.02046 -0.00121934 0
1.03086 -0.00108999 0
1.04122 -0.000954373 0
1.05149 -0.000814924 0
1.06167 -0.000671873 0
1.07173 -0.000525666 0
1.08163 -0.00037872 0
1.09137 -0.000229317 0
1.1009 -8.21628e-05 0
1.11022 6.68174e-05 0
1.11929 0.00021051 0
1.1281 0.000355557 0
1.13663 0.000492291 0
1.14485 0.000630147 0
1.15275 0.000756738 0
1.16031 0.000884525 0
1.16752 0.000998218 0
1.17435 0.00111354 0
1.1808 0.00121211 0
1.18685 0.00131313 0
1.19248 0.00139493 0
1.1977 0.00148044 0
1.20249 0.00154446 0
1.20684 0.00161387 0
1.21076 0.00165977 0
1.21422 0.00171313 0
1.21724 0.00174119 0
1.21982 0.00177917 0
1.22194 0.00179029 0
1.22363 0.00181409 0
1.22488 0.0018097 0
1.2257 0.00182101 0
1.22609 0.001803 0
1.22608 0.00180386 0
1.22567 0.00177446 0
1.22487 0.00176715 0
1.2237 0.00172879 0
1.22218 0.00171572 0
1.22033 0.00167092 0
1.21815 0.00165443 0
1.21568 0.00160567 0
1.21294 0.00158799 0
1.20993 0.00153756 0
1.20669 0.00152063 0
1.20323 0.00147056 0
1.19957 0.00145598 0
1.19574 0.00140797 0
1.19175 0.00139695 0
1.18762 0.0013523 0
1.18337 0.00134564 0
1.17902 0.00130526 0
1.17457 0.00130335 0
1.17006 0.00126778 0
1.16548 0.00127064 0
1.16086 0.00124005 0
1.1562 0.00124738 0
1.15151 0.00122166 0
1.14681 0.00123291 0
1.1421 0.0012117 0
1.13739 0.00122613 0
1.13269 0.00120889 0
1.128 0.00122561 0
1.12333 0.00121166 0
1.11867 0.00122975 0
1.11405 0.00121833 0
1.10945 0.00123684 0
1.10489 0.00122715 0
1.10036 0.00124517 0
1.09586 0.00123639 0
1.09141 0.00125308 0
1.087 0.00124445 0
1.08263 0.00125904 0
1.0783 0.00124983 0
1.07403 0.00126171 0
1.0698 0.00125125 0
1.06562 0.0012599 0
1.06149 0.00124762 0
1.05742 0.00125267 0
1.0534 0.00123807 0
1.04943 0.00123928 0
1.04553 0.00122198 0
1.04168 0.00121926 0
1.0379 0.00119897 0
1.03418 0.00119232 0
1.03052 0.00116886 0
1.02693 0.00115842 0
1.0234 0.00113172 0
1.01995 0.00111771 0
1.01657 0.00108778 0
1.01325 0.0010705 0
1.01001 0.00103748 0
1.00685 0.00101729 0
1.00375 0.000981386 0
1.00074 0.0009587 0
0.997796 0.000920191 0
0.994931 0.000895444 0
0.992143 0.000854682 0
0.989431 0.000828318 0
0.986796 0.000785703 0
0.984236 0.000758165 0
0.981752 0.000714134 0
0.979342 0.000685848 0
0.977007 0.00064086 0
0.974744 0.000612222 0
0.972554 0.000566747 0
0.970433 0.000538121 0
0.968381 0.000492624 0
0.966396 0.000464332 0
0.964477 0.000419263 0
0.962621 0.000391582 0
0.960826 0.000347369 0
0.95909 0.000320533 0
0.957412 0.000277572 0
0.955788 0.000251768 0
0.954217 0.000210416 0
0.952696 0.000185791 0
0.951223 0.000146366 0
0.949796 0.000123026 0
0.948412 8.58036e-05 0
0.947069 6.38188e-05 0
0.945765 2.90314e-05 0
0.944498 8.44088e-06 0
0.943266 -2.37186e-05 0
0.942066 -4.29047e-05 0
0.940898 -7.22798e-05 0
0.939757 -9.00762e-05 0
0.938645 -0.000116543 0
0.937557 -0.000132985 0
0.936493 -0.000156447 0
0.935452 -0.000171588 0
0.934431 -0.000191982 0
0.93343 -0.000205879 0
0.932447 -0.000223186 0
0.931482 -0.000235887 0
0.930533 -0.000250159 0
0.929601 -0.000261651 0
0.928686 -0.000273043 0
0.92779 -0.000283129 0
0.926919 -0.000291824 0
0.926087 -0.000299796 0
0.925337 -0.000305462 0
0.92479 -0.000309256 0
0.982679 -8.28263e-05 0
0.96707 -0.000190779 0
0.952875 -0.000320768 0
0.939847 -0.000468233 0
0.927783 -0.000631649 0
0.916524 -0.000805782 0
0.905948 -0.000991051 0
0.895966 -0.00118132 0
0.886511 -0.00137919 0
0.877546 -0.0015774 0
0.869043 -0.00178086 0
0.860996 -0.001981 0
0.853402 -0.0021851 0
0.84627 -0.00238313 0
0.839611 -0.00258473 0
0.833442 -0.0027783 0
0.827777 -0.00297573 0
0.822631 -0.00316382 0
0.818019 -0.00335653 0
0.813953 -0.00353905 0
0.810443 -0.00372717 0
0.807496 -0.00390456 0
0.805116 -0.00408849 0
0.803306 -0.00426127 0
0.802065 -0.00444131 0
0.801392 -0.00460972 0
0.801282 -0.00478569 0
0.801729 -0.00494937 0
0.802725 -0.00512034 0
0.804262 -0.00527805 0
0.806331 -0.00544213 0
0.80892 -0.00559161 0
0.812018 -0.00574583 0
0.815614 -0.00588369 0
0.819696 -0.00602399 0
0.824249 -0.00614577 0
0.829261 -0.00626709 0
0.834719 -0.0063674 0
0.840606 -0.00646385 0
0.846909 -0.00653662 0
0.853612 -0.00660185 0
0.860699 -0.00664068 0
0.868152 -0.00666822 0
0.875954 -0.00666684 0
0.884087 -0.0066506 0
0.892532 -0.00660335 0
0.901269 -0.00653809 0
0.910276 -0.0064404 0
0.919533 -0.00632225 0
0.929016 -0.0061711 0
0.938705 -0.00599793 0
0.948573 -0.00579223 0
0.958598 -0.00556396 0
0.968754 -0.00530478 0
0.979017 -0.00502355 0
0.989359 -0.00471419 0
0.999757 -0.00438438 0
1.01018 -0.00403031 0
1.02061 -0.00365836 0
1.03102 -0.00326701 0
1.04137 -0.00286114 0
1.05165 -0.00244153 0
1.06183 -0.00201135 0
1.07188 -0.00157367 0
1.08178 -0.00112971 0
1.09151 -0.000684825 0
1.10104 -0.000238015 0
1.11034 0.000203026 0
1.11941 0.000641828 0
1.1282 0.0010683 0
1.13671 0.00148878 0
1.14492 0.00189071 0
1.1528 0.00228353 0
1.16035 0.00265208 0
1.16753 0.0030092 0
1.17434 0.00333699 0
1.18077 0.00365196 0
1.18679 0.00393328 0
1.19241 0.00420142 0
1.1976 0.00443246 0
1.20237 0.00465099 0
1.2067 0.00482982 0
1.21059 0.00499791 0
1.21403 0.00512457 0
1.21703 0.00524326 0
1.21958 0.00531964 0
1.22168 0.00539175 0
1.22335 0.00542144 0
1.22458 0.00545134 0
1.22537 0.00543938 0
1.22575 0.00543274 0
1.22572 0.00538534 0
1.22529 0.00534874 0
1.22448 0.00527288 0
1.2233 0.00521348 0
1.22177 0.00511654 0
1.2199 0.00504164 0
1.21772 0.00493101 0
1.21524 0.00484767 0
1.21249 0.00473033 0
1.20948 0.004645 0
1.20623 0.00452723 0
1.20277 0.0044455 0
1.19911 0.00433263 0
1.19527 0.00425898 0
1.19128 0.00415518 0
1.18715 0.00409291 0
1.1829 0.0040012 0
1.17855 0.00395238 0
1.17411 0.00387456 0
1.1696 0.00384012 0
1.16502 0.0037769 0
1.1604 0.00375672 0
1.15575 0.00370786 0
1.15106 0.00370096 0
1.14637 0.00366541 0
1.14166 0.0036701 0
1.13696 0.00364621 0
1.13226 0.00366033 0
1.12757 0.00364598 0
1.1229 0.00366703 0
1.11826 0.00365986 0
1.11364 0.00368519 0
1.10904 0.00368267 0
1.10448 0.00370962 0
1.09996 0.00370924 0
1.09547 0.00373525 0
1.09103 0.00373458 0
1.08662 0.00375727 0
1.08226 0.00375406 0
1.07794 0.00377131 0
1.07367 0.00376353 0
1.06945 0.00377357 0
1.06527 0.00375947 0
1.06115 0.00376082 0
1.05708 0.00373898 0
1.05307 0.00373056 0
1.04911 0.00369985 0
1.04522 0.00368094 0
1.04138 0.00364058 0
1.0376 0.0036108 0
1.03389 0.00356036 0
1.03024 0.00351969 0
1.02665 0.00345902 0
1.02314 0.00340773 0
1.01969 0.00333703 0
1.01631 0.00327568 0
1.01301 0.00319539 0
1.00977 0.00312478 0
1.00661 0.0030356 0
1.00353 0.0029567 0
1.00052 0.00285953 0
0.997586 0.00277348 0
0.994729 0.0026694 0
0.991947 0.00257743 0
0.989243 0.00246763 0
0.986613 0.00237104 0
0.984061 0.00225681 0
0.981583 0.00215689 0
0.97918 0.00203954 0
0.976851 0.00193759 0
0.974595 0.00181845 0
0.972409 0.00171569 0
0.970295 0.00159607 0
0.968248 0.00149365 0
0.96627 0.00137478 0
0.964355 0.00127375 0
0.962505 0.00115678 0
0.960714 0.00105808 0
0.958984 0.000944079 0
0.95731 0.000848515 0
0.955691 0.00073842 0
0.954124 0.000646687 0
0.952608 0.000541317 0
0.951139 0.000453983 0
0.949716 0.000354037 0
0.948336 0.000271552 0
0.946998 0.000177606 0
0.945697 0.00010031 0
0.944434 1.28282e-05 0
0.943204 -5.9038e-05 0
0.942009 -0.0001397 0
0.940843 -0.000205986 0
0.939707 -0.000279562 0
0.938596 -0.000340196 0
0.937512 -0.000406505 0
0.93645 -0.00046148 0
0.935412 -0.000520413 0
0.934394 -0.00056978 0
0.933396 -0.000621308 0
0.932415 -0.00066516 0
0.931453 -0.000709355 0
0.930506 -0.000747797 0
0.929577 -0.000784851 0
0.928664 -0.000817876 0
0.927771 -0.000847981 0
0.926901 -0.000874992 0
0.926072 -0.000897539 0
0.925324 -0.000915756 0
0.924778 -0.00092638 0
0.982642 -0.000137708 0
0.967002 -0.000317716 0
0.95278 -0.000533282 0
0.939729 -0.000779727 0
0.927648 -0.00105007 0
0.916374 -0.00134179 0
0.905788 -0.0016475 0
0.895796 -0.00196713 0
0.886337 -0.0022927 0
0.877366 -0.00262674 0
0.868862 -0.00296044 0
0.860813 -0.00329902 0
0.85322 -0.0036326 0
0.846088 -0.00396906 0
0.839432 -0.0042973 0
0.833263 -0.00462776 0
0.8276 -0.00494796 0
0.822455 -0.00527068 0
0.817845 -0.005582 0
0.813779 -0.00589676 0
0.81027 -0.00619957 0
0.807322 -0.00650695 0
0.804943 -0.0068021 0
0.803132 -0.00710281 0
0.801891 -0.00739095 0
0.801217 -0.0076852 0
0.801107 -0.00796624 0
0.801553 -0.0082532 0
0.80255 -0.00852578 0
0.804087 -0.00880316 0
0.806157 -0.00906431 0
0.808749 -0.00932808 0
0.811851 -0.009573 0
0.815451 -0.00981731 0
0.819539 -0.0100393 0
0.8241 -0.0102565 0
0.829121 -0.0104473 0
0.834589 -0.0106281 0
0.84049 -0.0107779 0
0.846807 -0.010912 0
0.853526 -0.0110102 0
0.860631 -0.0110868 0
0.868104 -0.0111226 0
0.875928 -0.0111311 0
0.884083 -0.0110944 0
0.892552 -0.0110251 0
0.901313 -0.0109071 0
0.910345 -0.0107523 0
0.919628 -0.0105467 0
0.929138 -0.0103014 0
0.938851 -0.0100046 0
0.948745 -0.00966682 0
0.958793 -0.00927883 0
0.968972 -0.00885044 0
0.979255 -0.00837497 0
0.989617 -0.00786151 0
1.00003 -0.00730601 0
1.01047 -0.00671667 0
1.02091 -0.00609208 0
1.03133 -0.00543933 0
1.04168 -0.00475956 0
1.05197 -0.00405852 0
1.06214 -0.0033398 0
1.07219 -0.00260749 0
1.08208 -0.0018676 0
1.0918 -0.00112215 0
1.10131 -0.000379504 0
1.11059 0.000360706 0
1.11963 0.00108783 0
1.1284 0.00180499 0
1.13688 0.00249925 0
1.14506 0.00317688 0
1.1529 0.00382256 0
1.16041 0.00444609 0
1.16755 0.0050297 0
1.17432 0.00558703 0
1.1807 0.00609775 0
1.18668 0.00657962 0
1.19225 0.00700961 0
1.1974 0.00740986 0
1.20212 0.00775447 0
1.2064 0.00807019 0
1.21024 0.008328 0
1.21364 0.00855946 0
1.21659 0.00873226 0
1.21909 0.0088828 0
1.22116 0.0089753 0
1.22278 0.00905105 0
1.22396 0.00907061 0
1.22473 0.00908006 0
1.22507 0.00903617 0
1.225 0.00898966 0
1.22454 0.00889341 0
1.2237 0.00880252 0
1.22249 0.00866594 0
1.22094 0.00854282 0
1.21905 0.00837822 0
1.21685 0.00823491 0
1.21435 0.00805424 0
1.21159 0.0079021 0
1.20856 0.00771634 0
1.20531 0.00756544 0
1.20184 0.00738416 0
1.19817 0.00724295 0
1.19433 0.00707392 0
1.19034 0.00694893 0
1.18621 0.00679799 0
1.18197 0.00669373 0
1.17761 0.00656472 0
1.17318 0.00648374 0
1.16867 0.00637859 0
1.1641 0.00632161 0
1.15949 0.00624055 0
1.15484 0.0062067 0
1.15016 0.00614849 0
1.14547 0.00613562 0
1.14078 0.00609788 0
1.13608 0.00610283 0
1.13139 0.0060823 0
1.12672 0.00610125 0
1.12206 0.0060941 0
1.11742 0.00612282 0
1.11281 0.00612491 0
1.10823 0.00615902 0
1.10368 0.0061661 0
1.09917 0.00620128 0
1.09469 0.00620921 0
1.09026 0.00624137 0
1.08586 0.00624624 0
1.08151 0.00627165 0
1.07721 0.00626992 0
1.07295 0.00628531 0
1.06874 0.00627388 0
1.06458 0.00627652 0
1.06047 0.00625278 0
1.05642 0.0062405 0
1.05242 0.00620241 0
1.04848 0.00617364 0
1.04459 0.00611971 0
1.04077 0.00607347 0
1.037 0.00600276 0
1.0333 0.00593866 0
1.02967 0.00585078 0
1.0261 0.00576894 0
1.0226 0.00566403 0
1.01917 0.00556508 0
1.0158 0.00544376 0
1.01251 0.00532875 0
1.0093 0.00519204 0
1.00615 0.0050624 0
1.00308 0.00491171 0
1.00009 0.00476916 0
0.997167 0.00460619 0
0.994323 0.00445266 0
0.991556 0.00427933 0
0.988864 0.00411691 0
0.98625 0.0039353 0
0.983709 0.00376615 0
0.981246 0.00357844 0
0.978855 0.00340472 0
0.976539 0.0032131 0
0.974294 0.00303693 0
0.972122 0.00284357 0
0.970018 0.00266696 0
0.967984 0.00247392 0
0.966015 0.00229876 0
0.964113 0.00210799 0
0.962271 0.00193597 0
0.960493 0.00174925 0
0.958771 0.00158189 0
0.957108 0.00140083 0
0.955497 0.00123944 0
0.953941 0.00106543 0
0.952431 0.000911128 0
0.950972 0.000745367 0
0.949556 0.000599048 0
0.948185 0.000442532 0
0.946853 0.000304915 0
0.945561 0.000158447 0
0.944304 3.00682e-05 0
0.943083 -0.000105731 0
0.941892 -0.000224496 0
0.940735 -0.000349167 0
0.939603 -0.000458085 0
0.9385 -0.000571309 0
0.93742 -0.000670271 0
0.936367 -0.000771855 0
0.935332 -0.000860857 0
0.934321 -0.000950726 0
0.933326 -0.00102986 0
0.932353 -0.00110807 0
0.931393 -0.00117749 0
0.930454 -0.00124426 0
0.929527 -0.00130415 0
0.928621 -0.00135977 0
0.927731 -0.00140992 0
0.926868 -0.00145417 0
0.92604 -0.00149256 0
0.925298 -0.00152201 0
0.924754 -0.00154018 0
0.982587 -0.000192432 0
0.966899 -0.000443476 0
0.952638 -0.000745132 0
0.939554 -0.00108828 0
0.927444 -0.00146712 0
0.91615 -0.00187263 0
0.905546 -0.00230173 0
0.895543 -0.00274529 0
0.886073 -0.00320315 0
0.877098 -0.00366588 0
0.86859 -0.00413628 0
0.86054 -0.00460436 0
0.852946 -0.00507591 0
0.845816 -0.0055401 0
0.83916 -0.0060056 0
0.832995 -0.00646054 0
0.827332 -0.00691623 0
0.822191 -0.0073596 0
0.817581 -0.00780431 0
0.813518 -0.00823594 0
0.810007 -0.00867007 0
0.807061 -0.00909092 0
0.80468 -0.00951555 0
0.80287 -0.00992677 0
0.801628 -0.0103427 0
0.800954 -0.0107447 0
0.800842 -0.0111515 0
0.801288 -0.0115434 0
0.802284 -0.011939 0
0.803823 -0.0123176 0
0.805895 -0.0126977 0
0.80849 -0.0130575 0
0.811597 -0.0134149 0
0.815205 -0.0137478 0
0.819301 -0.0140731 0
0.823873 -0.0143683 0
0.828908 -0.0146494 0
0.834393 -0.014894 0
0.840312 -0.0151169 0
0.846652 -0.0152964 0
0.853395 -0.015446 0
0.860527 -0.015545 0
0.868029 -0.0156061 0
0.875885 -0.0156096 0
0.884075 -0.0155676 0
0.892578 -0.0154621 0
0.901377 -0.0153046 0
0.910447 -0.0150793 0
0.919768 -0.0147972 0
0.929316 -0.0144449 0
0.939068 -0.0140332 0
0.948999 -0.0135516 0
0.959083 -0.0130103 0
0.969295 -0.0124019 0
0.979611 -0.0117365 0
0.99 -0.0110094 0
1.00044 -0.0102304 0
1.0109 -0.00939783 0
1.02136 -0.00852081 0
1.03178 -0.00760058 0
1.04215 -0.00664528 0
1.05243 -0.00565892 0
1.0626 -0.00464831 0
1.07264 -0.00362002 0
1.08252 -0.00257913 0
1.09221 -0.00153463 0
1.1017 -0.000489364 0
1.11095 0.000545352 0
1.11996 0.00156936 0
1.12869 0.00256916 0
1.13712 0.00354771 0
1.14525 0.00448934 0
1.15304 0.00540059 0
1.16049 0.00626361 0
1.16757 0.00708889 0
1.17427 0.00785635 0
1.18059 0.00858079 0
1.1865 0.00923978 0
1.192 0.00985275 0
1.19708 0.0103947 0
1.20173 0.0108901 0
1.20594 0.0113111 0
1.20971 0.0116872 0
1.21303 0.0119879 0
1.21592 0.0122476 0
1.21835 0.0124326 0
1.22035 0.0125828 0
1.22191 0.012661 0
1.22304 0.0127121 0
1.22374 0.0126954 0
1.22403 0.0126609 0
1.22391 0.0125641 0
1.2234 0.0124594 0
1.22252 0.0122987 0
1.22127 0.0121406 0
1.21968 0.0119331 0
1.21776 0.0117387 0
1.21553 0.0115013 0
1.21301 0.011287 0
1.21022 0.0110358 0
1.20718 0.0108165 0
1.20391 0.0105658 0
1.20043 0.0103544 0
1.19676 0.0101161 0
1.19292 0.0099231 0
1.18892 0.00970661 0
1.1848 0.00953966 0
1.18055 0.00935154 0
1.1762 0.00921553 0
1.17177 0.00905963 0
1.16727 0.00895679 0
1.16271 0.00883446 0
1.15811 0.00876466 0
1.15347 0.00867504 0
1.1488 0.00863616 0
1.14413 0.00857659 0
1.13944 0.00856491 0
1.13476 0.00853135 0
1.13009 0.00854201 0
1.12542 0.00852942 0
1.12078 0.00855681 0
1.11616 0.00855956 0
1.11157 0.00859771 0
1.107 0.00860991 0
1.10247 0.00865275 0
1.09797 0.00866852 0
1.09352 0.0087102 0
1.0891 0.00872391 0
1.08472 0.00875899 0
1.08039 0.00876547 0
1.0761 0.00878906 0
1.07186 0.00878368 0
1.06767 0.00879159 0
1.06354 0.00877041 0
1.05945 0.00875922 0
1.05542 0.00871905 0
1.05144 0.00868612 0
1.04752 0.00862453 0
1.04365 0.00856807 0
1.03985 0.00848344 0
1.03611 0.00840244 0
1.03243 0.00829391 0
1.02882 0.00818815 0
1.02527 0.00805561 0
1.02179 0.0079256 0
1.01838 0.00776964 0
1.01504 0.00761651 0
1.01178 0.00743833 0
1.00858 0.00726379 0
1.00546 0.00706514 0
1.00241 0.00687136 0
0.999436 0.00665446 0
0.996536 0.00644398 0
0.993716 0.00621138 0
0.990968 0.005987 0
0.988299 0.00574153 0
0.985703 0.00550622 0
0.983185 0.00525086 0
0.980738 0.00500763 0
0.978369 0.00474544 0
0.97607 0.0044973 0
0.973846 0.0042313 0
0.971689 0.00398116 0
0.969606 0.00371429 0
0.967586 0.00346489 0
0.965636 0.00319992 0
0.963748 0.00295379 0
0.961925 0.00269331 0
0.960159 0.00245272 0
0.958454 0.00219904 0
0.956803 0.001966 0
0.955209 0.00172117 0
0.953663 0.00149741 0
0.95217 0.00126321 0
0.95072 0.00105017 0
0.949319 0.000828081 0
0.947957 0.00062691 0
0.946639 0.00041815 0
0.945356 0.000229756 0
0.944112 3.52747e-05 0
0.942899 -0.000139678 0
0.941721 -0.000319166 0
0.94057 -0.000480228 0
0.939451 -0.000644218 0
0.938354 -0.000791126 0
0.937286 -0.000939296 0
0.936238 -0.00107195 0
0.935215 -0.00120414 0
0.934208 -0.00132258 0
0.933225 -0.0014388 0
0.932256 -0.00154319 0
0.931308 -0.00164364 0
0.930372 -0.00173425 0
0.929457 -0.0018193 0
0.928554 -0.00189627 0
0.927674 -0.00196611 0
0.926813 -0.00202844 0
0.925997 -0.00208116 0
0.925256 -0.002123 0
0.924719 -0.00214787 0
0.982514 -0.00024652 0
0.966763 -0.000568538 0
0.952449 -0.000954458 0
0.93932 -0.00139501 0
0.927175 -0.00187909 0
0.915851 -0.00240027 0
0.905226 -0.00294788 0
0.895205 -0.00351871 0
0.885725 -0.00410232 0
0.87674 -0.0046988 0
0.868229 -0.00529765 0
0.860175 -0.00590228 0
0.852583 -0.00650184 0
0.845452 -0.00710292 0
0.8388 -0.00769406 0
0.832635 -0.00828484 0
0.826977 -0.00886289 0
0.821836 -0.00944044 0
0.81723 -0.010004 0
0.813166 -0.0105681 0
0.809659 -0.0111179 0
0.80671 -0.0116697 0
0.804331 -0.0122073 0
0.802518 -0.012748 0
0.801275 -0.0132745 0
0.800598 -0.0138048 0
0.800486 -0.0143199 0
0.80093 -0.014838 0
0.801927 -0.0153391 0
0.803467 -0.015841 0
0.805541 -0.0163225 0
0.80814 -0.0168007 0
0.811254 -0.0172536 0
0.81487 -0.0176973 0
0.818979 -0.0181092 0
0.823566 -0.0185043 0
0.82862 -0.0188595 0
0.834126 -0.0191889 0
0.840071 -0.0194695 0
0.846439 -0.019714 0
0.853215 -0.0199001 0
0.860383 -0.0200396 0
0.867925 -0.0201113 0
0.875823 -0.0201262 0
0.884058 -0.0200646 0
0.89261 -0.019937 0
0.901457 -0.019726 0
0.910579 -0.0194419 0
0.919951 -0.0190697 0
0.929551 -0.0186198 0
0.939353 -0.0180801 0
0.949334 -0.0174612 0
0.959465 -0.0167544 0
0.969723 -0.0159702 0
0.980078 -0.0151033 0
0.990505 -0.0141646 0
1.00098 -0.0131519 0
1.01146 -0.012076 0
1.02194 -0.010938 0
1.03238 -0.00974825 0
1.04276 -0.00851099 0
1.05304 -0.0072356 0
1.06321 -0.00592916 0
1.07323 -0.00459966 0
1.08309 -0.00325676 0
1.09276 -0.00190651 0
1.1022 -0.000560938 0
1.11142 0.000776444 0
1.12037 0.00209143 0
1.12905 0.00338358 0
1.13742 0.00463664 0
1.14548 0.00585377 0
1.1532 0.00701675 0
1.16057 0.00813279 0
1.16757 0.00918173 0
1.17419 0.0101753 0
1.18042 0.0110912 0
1.18624 0.0119461 0
1.19164 0.0127155 0
1.19663 0.0134213 0
1.20118 0.0140367 0
1.2053 0.0145888 0
1.20897 0.0150484 0
1.2122 0.015448 0
1.21499 0.0157558 0
1.21734 0.0160096 0
1.21925 0.0161747 0
1.22073 0.0162944 0
1.22177 0.0163305 0
1.2224 0.0163317 0
1.22261 0.0162563 0
1.22243 0.016158 0
1.22186 0.0159912 0
1.22092 0.0158142 0
1.21962 0.0155777 0
1.21798 0.0153439 0
1.21602 0.0150595 0
1.21376 0.0147904 0
1.2112 0.0144793 0
1.20839 0.014195 0
1.20533 0.0138765 0
1.20204 0.0135949 0
1.19854 0.0132856 0
1.19486 0.0130215 0
1.19101 0.012735 0
1.18702 0.0124997 0
1.18289 0.0122459 0
1.17865 0.0120475 0
1.1743 0.0118329 0
1.16988 0.0116758 0
1.16539 0.0115035 0
1.16084 0.0113889 0
1.15625 0.0112591 0
1.15163 0.0111854 0
1.14698 0.0110956 0
1.14232 0.0110592 0
1.13765 0.011005 0
1.13299 0.0110002 0
1.12833 0.0109757 0