# vtk DataFile Version 3.0
Flow field at step 150
ASCII
DATASET STRUCTURED_GRID
DIMENSIONS 200 100 1
POINTS 20000 float
0.005 0.005 0
0.015 0.005 0
0.025 0.005 0
0.035 0.005 0
0.045 0.005 0
0.055 0.005 0
0.065 0.005 0
0.075 0.005 0
0.085 0.005 0
0.095 0.005 0
0.105 0.005 0
0.115 0.005 0
0.125 0.005 0
0.135 0.005 0
0.145 0.005 0
0.155 0.005 0
0.165 0.005 0
0.175 0.005 0
0.185 0.005 0
0.195 0.005 0
0.205 0.005 0
0.215 0.005 0
0.225 0.005 0
0.235 0.005 0
0.245 0.005 0
0.255 0.005 0
0.265 0.005 0
0.275 0.005 0
0.285 0.005 0
0.295 0.005 0
0.305 0.005 0
0.315 0.005 0
0.325 0.005 0
0.335 0.005 0
0.345 0.005 0
0.355 0.005 0
0.365 0.005 0
0.375 0.005 0
0.385 0.005 0
0.395 0.005 0
0.405 0.005 0
0.415 0.005 0
0.425 0.005 0
0.435 0.005 0
0.445 0.005 0
0.455 0.005 0
0.465 0.005 0
0.475 0.005 0
0.485 0.005 0
0.495 0.005 0
0.505 0.005 0
0.515 0.005 0
0.525 0.005 0
0.535 0.005 0
0.545 0.005 0
0.555 0.005 0
0.565 0.005 0
0.575 0.005 0
0.585 0.005 0
0.595 0.005 0
0.605 0.005 0
0.615 0.005 0
0.625 0.005 0
0.635 0.005 0
0.645 0.005 0
0.655 0.005 0
0.665 0.005 0
0.675 0.005 0
0.685 0.005 0
0.695 0.005 0
0.705 0.005 0
0.715 0.005 0
0.725 0.005 0
0.735 0.005 0
0.745 0.005 0
0.755 0.005 0
0.765 0.005 0
0.775 0.005 0
0.785 0.005 0
0.795 0.005 0
0.805 0.005 0
0.815 0.005 0
0.825 0.005 0
0.835 0.005 0
0.845 0.005 0
0.855 0.005 0
0.865 0.005 0
0.875 0.005 0
0.885 0.005 0
0.895 0.005 0
0.905 0.005 0
0.915 0.005 0
0.925 0.005 0
0.935 0.005 0
0.945 0.005 0
0.955 0.005 0
0.965 0.005 0
0.975 0.005 0
0.985 0.005 0
0.995 0.005 0
1.005 0.005 0
1.015 0.005 0
1.025 0.005 0
1.035 0.005 0
1.045 0.005 0
1.055 0.005 0
1.065 0.005 0
1.075 0.005 0
1.085 0.005 0
1.095 0.005 0
1.105 0.005 0
1.115 0.005 0
1.125 0.005 0
1.135 0.005 0
1.145 0.005 0
1.155 0.005 0
1.165 0.005 0
1.175 0.005 0
1.185 0.005 0
1.195 0.005 0
1.205 0.005 0
1.215 0.005 0
1.225 0.005 0
1.235 0.005 0
1.245 0.005 0
1.255 0.005 0
1.265 0.005 0
1.275 0.005 0
1.285 0.005 0
1.295 0.005 0
1.305 0.005 0
1.315 0.005 0
1.325 0.005 0
1.335 0.005 0
1.345 0.005 0
1.355 0.005 0
1.365 0.005 0
1.375 0.005 0
1.385 0.005 0
1.395 0.005 0
1.405 0.005 0
1.415 0.005 0
1.425 0.005 0
1.435 0.005 0
1.445 0.005 0
1.455 0.005 0
1.465 0.005 0
1.475 0.005 0
1.485 0.005 0
1.495 0.005 0
1.505 0.005 0
1.515 0.005 0
1.525 0.005 0
1.535 0.005 0
1.545 0.005 0
1.555 0.005 0
1.565 0.005 0
1.575 0.005 0
1.585 0.005 0
1.595 0.005 0
1.605 0.005 0
1.615 0.005 0
1.625 0.005 0
1.635 0.005 0
1.645 0.005 0
1.655 0.005 0
1.665 0.005 0
1.675 0.005 0
1.685 0.005 0
1.695 0.005 0
1.705 0.005 0
1.715 0.005 0
1.725 0.005 0
1.735 0.005 0
1.745 0.005 0
1.755 0.005 0
1.765 0.005 0
1.775 0.005 0
1.785 0.005 0
1.795 0.005 0
1.805 0.005 0
1.815 0.005 0
1.825 0.005 0
1.835 0.005 0
1.845 0.005 0
1.855 0.005 0
1.865 0.005 0
1.875 0.005 0
1.885 0.005 0
1.895 0.005 0
1.905 0.005 0
1.915 0.005 0
1.925 0.005 0
1.935 0.005 0
1.945 0.005 0
1.955 0.005 0
1.965 0.005 0
1.975 0.005 0
1.985 0.005 0
1.995 0.005 0
0.005 0.015 0
0.015 0.015 0
0.025 0.015 0
0.035 0.015 0
0.045 0.015 0
0.055 0.015 0
0.065 0.015 0
0.075 0.015 0
0.085 0.015 0
0.095 0.015 0
0.105 0.015 0
0.115 0.015 0
0.125 0.015 0
0.135 0.015 0
0.145 0.015 0
0.155 0.015 0
0.165 0.015 0
0.175 0.015 0
0.185 0.015 0
0.195 0.015 0
0.205 0.015 0
0.215 0.015 0
0.225 0.015 0
0.235 0.015 0
0.245 0.015 0
0.255 0.015 0
0.265 0.015 0
0.275 0.015 0
0.285 0.015 0
0.295 0.015 0
0.305 0.015 0
0.315 0.015 0
0.325 0.015 0
0.335 0.015 0
0.345 0.015 0
0.355 0.015 0
0.365 0.015 0
0.375 0.015 0
0.385 0.015 0
0.395 0.015 0
0.405 0.015 0
0.415 0.015 0
0.425 0.015 0
0.435 0.015 0
0.445 0.015 0
0.455 0.015 0
0.465 0.015 0
0.475 0.015 0
0.485 0.015 0
0.495 0.015 0
0.505 0.015 0
0.515 0.015 0
0.525 0.015 0
0.535 0.015 0
0.545 0.015 0
0.555 0.015 0
0.565 0.015 0
0.575 0.015 0
0.585 0.015 0
0.595 0.015 0
0.605 0.015 0
0.615 0.015 0
0.625 0.015 0
0.635 0.015 0
0.645 0.015 0
0.655 0.015 0
0.665 0.015 0
0.675 0.015 0
0.685 0.015 0
0.695 0.015 0
0.705 0.015 0
0.715 0.015 0
0.725 0.015 0
0.735 0.015 0
0.745 0.015 0
0.755 0.015 0
0.765 0.015 0
0.775 0.015 0
0.785 0.015 0
0.795 0.015 0
0.805 0.015 0
0.815 0.015 0
0.825 0.015 0
0.835 0.015 0
0.845 0.015 0
0.855 0.015 0
0.865 0.015 0
0.875 0.015 0
0.885 0.015 0
0.895 0.015 0
0.905 0.015 0
0.915 0.015 0
0.925 0.015 0
0.935 0.015 0
0.945 0.015 0
0.955 0.015 0
0.965 0.015 0
0.975 0.015 0
0.985 0.015 0
0.995 0.015 0
1.005 0.015 0
1.015 0.015 0
1.025 0.015 0
1.035 0.015 0
1.045 0.015 0
1.055 0.015 0
1.065 0.015 0
1.075 0.015 0
1.085 0.015 0
1.095 0.015 0
1.105 0.015 0
1.115 0.015 0
1.125 0.015 0
1.135 0.015 0
1.145 0.015 0
1.155 0.015 0
1.165 0.015 0
1.175 0.015 0
1.185 0.015 0
1.195 0.015 0
1.205 0.015 0
1.215 0.015 0
1.225 0.015 0
1.235 0.015 0
1.245 0.015 0
1.255 0.015 0
1.265 0.015 0
1.275 0.015 0
1.285 0.015 0
1.295 0.015 0
1.305 0.015 0
1.315 0.015 0
1.325 0.015 0
1.335 0.015 0
1.345 0.015 0
1.355 0.015 0
1.365 0.015 0
1.375 0.015 0
1.385 0.015 0
1.395 0.015 0
1.405 0.015 0
1.415 0.015 0
1.425 0.015 0
1.435 0.015 0
1.445 0.015 0
1.455 0.015 0
1.465 0.015 0
1.475 0.015 0
1.485 0.015 0
1.495 0.015 0
1.505 0.015 0
1.515 0.015 0
1.525 0.015 0
1.535 0.015 0
1.545 0.015 0
1.555 0.015 0
1.565 0.015 0
1.575 0.015 0
1.585 0.015 0
1.595 0.015 0
1.605 0.015 0
1.615 0.015 0
1.625 0.015 0
1.635 0.015 0
1.645 0.015 0
1.655 0.015 0
1.665 0.015 0
1.675 0.015 0
1.685 0.015 0
1.695 0.015 0
1.705 0.015 0
1.715 0.015 0
1.725 0.015 0
1.735 0.015 0
1.745 0.015 0
1.755 0.015 0
1.765 0.015 0
1.775 0.015 0
1.785 0.015 0
1.795 0.015 0
1.805 0.015 0
1.815 0.015 0
1.825 0.015 0
1.835 0.015 0
1.845 0.015 0
1.855 0.015 0
1.865 0.015 0
1.875 0.015 0
1.885 0.015 0
1.895 0.015 0
1.905 0.015 0
1.915 0.015 0
1.925 0.015 0
1.935 0.015 0
1.945 0.015 0
1.955 0.015 0
1.965 0.015 0
1.975 0.015 0
1.985 0.015 0
1.995 0.015 0
0.005 0.025 0
0.015 0.025 0
0.025 0.025 0
0.035 0.025 0
0.045 0.025 0
0.055 0.025 0
0.065 0.025 0
0.075 0.025 0
0.085 0.025 0
0.095 0.025 0
0.105 0.025 0
0.115 0.025 0
0.125 0.025 0
0.135 0.025 0
0.145 0.025 0
0.155 0.025 0
0.165 0.025 0
0.175 0.025 0
0.185 0.025 0
0.195 0.025 0
0.205 0.025 0
0.215 0.025 0
0.225 0.025 0
0.235 0.025 0
0.245 0.025 0
0.255 0.025 0
0.265 0.025 0
0.275 0.025 0
0.285 0.025 0
0.295 0.025 0
0.305 0.025 0
0.315 0.025 0
0.325 0.025 0
0.335 0.025 0
0.345 0.025 0
0.355 0.025 0
0.365 0.025 0
0.375 0.025 0
0.385 0.025 0
0.395 0.025 0
0.405 0.025 0
0.415 0.025 0
0.425 0.025 0
0.435 0.025 0
0.445 0.025 0
0.455 0.025 0
0.465 0.025 0
0.475 0.025 0
0.485 0.025 0
0.495 0.025 0
0.505 0.025 0
0.515 0.025 0
0.525 0.025 0
0.535 0.025 0
0.545 0.025 0
0.555 0.025 0
0.565 0.025 0
0.575 0.025 0
0.585 0.025 0
0.595 0.025 0
0.605 0.025 0
0.615 0.025 0
0.625 0.025 0
0.635 0.025 0
0.645 0.025 0
0.655 0.025 0
0.665 0.025 0
0.675 0.025 0
0.685 0.025 0
0.695 0.025 0
0.705 0.025 0
0.715 0.025 0
0.725 0.025 0
0.735 0.025 0
0.745 0.025 0
0.755 0.025 0
0.765 0.025 0
0.775 0.025 0
0.785 0.025 0
0.795 0.025 0
0.805 0.025 0
0.815 0.025 0
0.825 0.025 0
0.835 0.025 0
0.845 0.025 0
0.855 0.025 0
0.865 0.025 0
0.875 0.025 0
0.885 0.025 0
0.895 0.025 0
0.905 0.025 0
0.915 0.025 0
0.925 0.025 0
0.935 0.025 0
0.945 0.025 0
0.955 0.025 0
0.965 0.025 0
0.975 0.025 0
0.985 0.025 0
0.995 0.025 0
1.005 0.025 0
1.015 0.025 0
1.025 0.025 0
1.035 0.025 0
1.045 0.025 0
1.055 0.025 0
1.065 0.025 0
1.075 0.025 0
1.085 0.025 0
1.095 0.025 0
1.105 0.025 0
1.115 0.025 0
1.125 0.025 0
1.135 0.025 0
1.145 0.025 0
1.155 0.025 0
1.165 0.025 0
1.175 0.025 0
1.185 0.025 0
1.195 0.025 0
1.205 0.025 0
1.215 0.025 0
1.225 0.025 0
1.235 0.025 0
1.245 0.025 0
1.255 0.025 0
1.265 0.025 0
1.275 0.025 0
1.285 0.025 0
1.295 0.025 0
1.305 0.025 0
1.315 0.025 0
1.325 0.025 0
1.335 0.025 0
1.345 0.025 0
1.355 0.025 0
1.365 0.025 0
1.375 0.025 0
1.385 0.025 0
1.395 0.025 0
1.405 0.025 0
1.415 0.025 0
1.425 0.025 0
1.435 0.025 0
1.445 0.025 0
1.455 0.025 0
1.465 0.025 0
1.475 0.025 0
1.485 0.025 0
1.495 0.025 0
1.505 0.025 0
1.515 0.025 0
1.525 0.025 0
1.535 0.025 0
1.545 0.025 0
1.555 0.025 0
1.565 0.025 0
1.575 0.025 0
1.585 0.025 0
1.595 0.025 0
1.605 0.025 0
1.615 0.025 0
1.625 0.025 0
1.635 0.025 0
1.645 0.025 0
1.655 0.025 0
1.665 0.025 0
1.675 0.025 0
1.685 0.025 0
1.695 0.025 0
1.705 0.025 0
1.715 0.025 0
1.725 0.025 0
1.735 0.025 0
1.745 0.025 0
1.755 0.025 0
1.765 0.025 0
1.775 0.025 0
1.785 0.025 0
1.795 0.025 0
1.805 0.025 0
1.815 0.025 0
1.825 0.025 0
1.835 0.025 0
1.845 0.025 0
1.855 0.025 0
1.865 0.025 0
1.875 0.025 0
1.885 0.025 0
1.895 0.025 0
1.905 0.025 0
1.915 0.025 0
1.925 0.025 0
1.935 0.025 0
1.945 0.025 0
1.955 0.025 0
1.965 0.025 0
1.975 0.025 0
1.985 0.025 0
1.995 0.025 0
0.005 0.035 0
0.015 0.035 0
0.025 0.035 0
0.035 0.035 0
0.045 0.035 0
0.055 0.035 0
0.065 0.035 0
0.075 0.035 0
0.085 0.035 0
0.095 0.035 0
0.105 0.035 0
0.115 0.035 0
0.125 0.035 0
0.135 0.035 0
0.145 0.035 0
0.155 0.035 0
0.165 0.035 0
0.175 0.035 0
0.185 0.035 0
0.195 0.035 0
0.205 0.035 0
0.215 0.035 0
0.225 0.035 0
0.235 0.035 0
0.245 0.035 0
0.255 0.035 0
0.265 0.035 0
0.275 0.035 0
0.285 0.035 0
0.295 0.035 0
0.305 0.035 0
0.315 0.035 0
0.325 0.035 0
0.335 0.035 0
0.345 0.035 0
0.355 0.035 0
0.365 0.035 0
0.375 0.035 0
0.385 0.035 0
0.395 0.035 0
0.405 0.035 0
0.415 0.035 0
0.425 0.035 0
0.435 0.035 0
0.445 0.035 0
0.455 0.035 0
0.465 0.035 0
0.475 0.035 0
0.485 0.035 0
0.495 0.035 0
0.505 0.035 0
0.515 0.035 0
0.525 0.035 0
0.535 0.035 0
0.545 0.035 0
0.555 0.035 0
0.565 0.035 0
0.575 0.035 0
0.585 0.035 0
0.595 0.035 0
0.605 0.035 0
0.615 0.035 0
0.625 0.035 0
0.635 0.035 0
0.645 0.035 0
0.655 0.035 0
0.665 0.035 0
0.675 0.035 0
0.685 0.035 0
0.695 0.035 0
0.705 0.035 0
0.715 0.035 0
0.725 0.035 0
0.735 0.035 0
0.745 0.035 0
0.755 0.035 0
0.765 0.035 0
0.775 0.035 0
0.785 0.035 0
0.795 0.035 0
0.805 0.035 0
0.815 0.035 0
0.825 0.035 0
0.835 0.035 0
0.845 0.035 0
0.855 0.035 0
0.865 0.035 0
0.875 0.035 0
0.885 0.035 0
0.895 0.035 0
0.905 0.035 0
0.915 0.035 0
0.925 0.035 0
0.935 0.035 0
0.945 0.035 0
0.955 0.035 0
0.965 0.035 0
0.975 0.035 0
0.985 0.035 0
0.995 0.035 0
1.005 0.035 0
1.015 0.035 0
1.025 0.035 0
1.035 0.035 0
1.045 0.035 0
[...]
POINT_DATA 20000
VECTORS velocity float
1 -8.82576e-12 0
1 -1.96303e-11 0
1 -4.75789e-11 0
1 -7.75016e-11 0
1 -1.67007e-10 0
1 -2.59305e-10 0
1 -5.34448e-10 0
1 -8.10561e-10 0
1 -1.61148e-09 0
1 -2.39444e-09 0
1 -4.5994e-09 0
1 -6.69883e-09 0
1 -1.24431e-08 0
1 -1.77678e-08 0
1 -3.19391e-08 0
1 -4.47201e-08 0
1 -7.78518e-08 0
1 -1.06901e-07 0
0.999999 -1.80357e-07 0
0.999999 -2.42902e-07 0
0.999998 -3.97439e-07 0
0.999998 -5.25046e-07 0
0.999997 -8.33715e-07 0
0.999996 -1.08048e-06 0
0.999994 -1.66609e-06 0
0.999992 -2.11839e-06 0
0.999989 -3.17414e-06 0
0.999986 -3.95981e-06 0
0.999981 -5.76891e-06 0
0.999976 -7.06176e-06 0
0.999969 -1.00088e-05 0
0.999961 -1.20226e-05 0
0.999952 -1.65866e-05 0
0.999941 -1.95518e-05 0
0.999929 -2.62699e-05 0
0.999915 -3.03892e-05 0
0.9999 -3.97845e-05 0
0.999884 -4.51657e-05 0
0.999866 -5.76395e-05 0
0.999849 -6.4216e-05 0
0.999832 -7.99178e-05 0
0.999816 -8.73716e-05 0
0.999801 -0.000106073 0
0.999789 -0.000113785 0
0.99978 -0.000134795 0
0.999775 -0.000141843 0
0.999775 -0.000163991 0
0.99978 -0.000169221 0
0.99979 -0.000190941 0
0.999807 -0.000193095 0
0.99983 -0.000212604 0
0.999859 -0.000210506 0
0.999894 -0.000226056 0
0.999933 -0.000218805 0
0.999977 -0.000228958 0
1.00002 -0.000216101 0
1.00007 -0.000219976 0
1.00012 -0.000201616 0
1.00017 -0.000199054 0
1.00021 -0.000175866 0
1.00025 -0.000167481 0
1.00028 -0.000140643 0
1.00031 -0.000127747 0
1.00033 -9.8791e-05 0
1.00035 -8.32054e-05 0
1.00035 -5.38223e-05 0
1.00035 -3.76204e-05 0
1.00034 -9.45512e-06 0
1.00032 5.32758e-06 0
1.0003 3.08594e-05 0
1.00027 4.24921e-05 0
1.00023 6.43387e-05 0
1.0002 7.16e-05 0
1.00016 8.91461e-05 0
1.00012 9.14396e-05 0
1.00008 0.000104513 0
1.00005 0.000101883 0
1.00002 0.000110707 0
0.999986 0.000103758 0
0.99996 0.000108863 0
0.999938 9.86116e-05 0
0.999921 0.000100718 0
0.999909 8.84031e-05 0
0.9999 8.83108e-05 0
0.999896 7.51961e-05 0
0.999894 7.36816e-05 0
0.999896 6.08866e-05 0
0.9999 5.86246e-05 0
0.999906 4.70076e-05 0
0.999913 4.45245e-05 0
0.999922 3.46269e-05 0
0.99993 3.22847e-05 0
0.999939 2.43353e-05 0
0.999947 2.23416e-05 0
0.999955 1.63079e-05 0
0.999963 1.47442e-05 0
0.999969 1.04114e-05 0
0.999975 9.26942e-06 0
0.99998 6.32497e-06 0
0.999984 5.54443e-06 0
0.999988 3.65137e-06 0
0.999991 3.15069e-06 0
0.999993 2.00001e-06 0
0.999995 1.69828e-06 0
0.999996 1.0377e-06 0
0.999997 8.66824e-07 0
0.999998 5.09109e-07 0
0.999999 4.18212e-07 0
0.999999 2.35746e-07 0
0.999999 1.90366e-07 0
1 1.02833e-07 0
1 8.1595e-08 0
1 4.21696e-08 0
1 3.28647e-08 0
1 1.62233e-08 0
1 1.24127e-08 0
1 5.84257e-09 0
1 4.38642e-09 0
1 1.96518e-09 0
1 1.44694e-09 0
1 6.15885e-10 0
1 4.44451e-10 0
1 1.7939e-10 0
1 1.26797e-10 0
1 4.84332e-11 0
1 3.35055e-11 0
1 1.20864e-11 0
1 8.17653e-12 0
1 2.77933e-12 0
1 1.83695e-12 0
1 5.86973e-13 0
1 3.78659e-13 0
1 1.13417e-13 0
1 7.14089e-14 0
1 1.9924e-14 0
1 1.22454e-14 0
1 3.16353e-15 0
1 1.89609e-15 0
1 4.82814e-16 0
1 2.64431e-16 0
1 6.16489e-17 0
1 2.45988e-17 0
1 2.11831e-18 0
1 7.09208e-18 0
1 7.39616e-20 0
1 6.74097e-18 0
1 2.34323e-21 0
1 7.07046e-18 0
1 6.44546e-23 0
1 7.48314e-18 0
1 1.53414e-24 0
1 7.97851e-18 0
1 3.13001e-26 0
1 8.58711e-18 0
1 5.30613e-28 0
1 9.35963e-18 0
1 7.30669e-30 0
1 1.03853e-17 0
1 8.39428e-32 0
1 1.18388e-17 0
1 1.46902e-33 0
1 1.41191e-17 0
1 1.77362e-35 0
1 1.83519e-17 0
1 6.80696e-37 0
1 2.87144e-17 0
1 0 0
1 0 0
1 0 0
1 0 0
1 0 0
1 0 0
1 0 0
1 0 0
1 0 0
1 0 0
1 0 0
1 0 0
1 0 0
1 0 0
1 0 0
1 0 0
1 0 0
1 0 0
1 0 0
1 0 0
1 0 0
1 0 0
1 0 0
1 0 0
1 0 0
1 0 0
1 0 0
1 0 0
1 0 0
1 0 0
1 0 0
1 0 0
1 0 0
1 0 0
1 -2.5434e-11 0
1 -7.08175e-11 0
1 -1.37324e-10 0
1 -2.77768e-10 0
1 -4.83172e-10 0
1 -9.22174e-10 0
1 -1.55025e-09 0
1 -2.86034e-09 0
1 -4.68641e-09 0
1 -8.38664e-09 0
1 -1.34092e-08 0
1 -2.32959e-08 0
1 -3.63647e-08 0
1 -6.13694e-08 0
1 -9.3558e-08 0
1 -1.53461e-07 0
1 -2.28553e-07 0
0.999999 -3.64576e-07 0
0.999999 -5.30594e-07 0
0.999999 -8.23526e-07 0
0.999998 -1.17154e-06 0
0.999997 -1.77015e-06 0
0.999996 -2.46214e-06 0
0.999995 -3.62338e-06 0
0.999993 -4.92886e-06 0
0.99999 -7.06814e-06 0
0.999987 -9.40531e-06 0
0.999983 -1.31487e-05 0
0.999978 -1.71193e-05 0
0.999972 -2.33419e-05 0
0.999964 -2.97415e-05 0
0.999955 -3.95668e-05 0
0.999944 -4.93482e-05 0
0.999931 -6.408e-05 0
0.999918 -7.82443e-05 0
0.999901 -9.92069e-05 0
0.999885 -0.000118613 0
0.999866 -0.000146893 0
0.999847 -0.000171992 0
0.999827 -0.000208103 0
0.999809 -0.000238642 0
0.99979 -0.000282178 0
0.999775 -0.000316935 0
0.99976 -0.000366291 0
0.999752 -0.000402939 0
0.999746 -0.000455211 0
0.999747 -0.000490375 0
0.999753 -0.000541499 0
0.999766 -0.000571057 0
0.999785 -0.000616231 0
0.999813 -0.000635828 0
0.999845 -0.00067015 0
0.999885 -0.000675857 0
0.99993 -0.000695084 0
0.999979 -0.00068406 0
1.00003 -0.00068533 0
1.00008 -0.000656359 0
1.00014 -0.000638726 0
1.00019 -0.000592507 0
1.00024 -0.000557181 0
1.00028 -0.000496314 0
1.00032 -0.000446546 0
1.00035 -0.000375215 0
1.00038 -0.000315868 0
1.00039 -0.000239292 0
1.0004 -0.000176171 0
1.00039 -9.99197e-05 0
1.00038 -3.8988e-05 0
1.00036 3.1713e-05 0
1.00033 8.5096e-05 0
1.0003 0.000145958 0
1.00026 0.000187663 0
1.00022 0.000235752 0
1.00018 0.000263281 0
1.00014 0.00029721 0
1.00009 0.000309836 0
1.00005 0.00032973 0
1.00002 0.000328381 0
0.999984 0.000335653 0
0.999955 0.000322578 0
0.99993 0.000319567 0
0.999911 0.000297867 0
0.999896 0.000287409 0
0.999887 0.000260519 0
0.999881 0.000245526 0
0.99988 0.00021673 0
0.999881 0.000199835 0
0.999886 0.000171888 0
0.999892 0.0001552 0
0.999901 0.000130098 0
0.999909 0.00011508 0
0.99992 9.39922e-05 0
0.999929 8.14623e-05 0
0.999939 6.47981e-05 0
0.999948 5.5019e-05 0
0.999957 4.25948e-05 0
0.999964 3.54217e-05 0
0.999971 2.66697e-05 0
0.999976 2.17131e-05 0
0.999982 1.58852e-05 0
0.999985 1.26554e-05 0
0.999989 8.98772e-06 0
0.999992 7.00281e-06 0
0.999994 4.82282e-06 0
0.999995 3.67287e-06 0
0.999997 2.45025e-06 0
0.999998 1.82272e-06 0
0.999998 1.17652e-06 0
0.999999 8.54335e-07 0
0.999999 5.32913e-07 0
0.999999 3.77489e-07 0
1 2.27265e-07 0
1 1.56924e-07 0
1 9.10638e-08 0
1 6.12479e-08 0
1 3.42122e-08 0
1 2.23966e-08 0
1 1.20249e-08 0
1 7.6558e-09 0
1 3.94505e-09 0
1 2.44064e-09 0
1 1.20515e-09 0
1 7.23855e-10 0
1 3.41936e-10 0
1 1.99208e-10 0
1 8.98641e-11 0
1 5.07303e-11 0
1 2.1813e-11 0
1 1.19193e-11 0
1 4.87509e-12 0
1 2.5756e-12 0
1 9.99838e-13 0
1 5.10118e-13 0
1 1.87467e-13 0
1 9.22874e-14 0
1 3.19774e-14 0
1 1.51793e-14 0
1 4.93542e-15 0
1 2.26509e-15 0
1 7.04184e-16 0
1 2.82634e-16 0
1 6.3122e-17 0
1 2.66338e-17 0
1 8.52881e-18 0
1 1.31171e-17 0
1 6.78969e-18 0
1 1.31822e-17 0
1 7.07196e-18 0
1 1.38213e-17 0
1 7.48318e-18 0
1 1.45843e-17 0
1 7.97851e-18 0
1 1.54878e-17 0
1 8.58711e-18 0
1 1.65786e-17 0
1 9.35963e-18 0
1 1.79285e-17 0
1 1.03853e-17 0
1 1.96499e-17 0
1 1.18388e-17 0
1 2.19197e-17 0
1 1.41191e-17 0
1 2.49747e-17 0
1 1.83519e-17 0
1 2.87144e-17 0
1 2.87144e-17 0
1 2.87144e-17 0
1 0 0
1 0 0
1 0 0
1 0 0
1 0 0
1 0 0
1 0 0
1 0 0
1 0 0
1 0 0
1 0 0
1 0 0
1 0 0
1 0 0
1 0 0
1 0 0
1 0 0
1 0 0
1 0 0
1 0 0
1 0 0
1 0 0
1 0 0
1 0 0
1 0 0
1 0 0
1 0 0
1 0 0
1 0 0
1 0 0
1 0 0
1 0 0
1 0 0
1 -5.10367e-11 0
1 -1.2784e-10 0
1 -2.7433e-10 0
1 -5.00677e-10 0
1 -9.58844e-10 0
1 -1.65934e-09 0
1 -3.05502e-09 0
1 -5.13805e-09 0
1 -9.17298e-09 0
1 -1.50403e-08 0
1 -2.60771e-08 0
1 -4.17118e-08 0
1 -7.02829e-08 0
1 -1.09715e-07 0
1 -1.79758e-07 0
1 -2.73946e-07 0
0.999999 -4.36668e-07 0
0.999999 -6.49865e-07 0
0.999999 -1.00831e-06 0
0.999998 -1.46586e-06 0
0.999998 -2.21495e-06 0
0.999997 -3.14638e-06 0
0.999995 -4.63222e-06 0
0.999993 -6.4314e-06 0
0.999991 -9.22971e-06 0
0.999988 -1.25282e-05 0
0.999983 -1.75333e-05 0
0.999978 -2.32734e-05 0
0.999971 -3.17765e-05 0
0.999963 -4.1257e-05 0
0.999953 -5.49776e-05 0
0.999942 -6.98346e-05 0
0.999927 -9.08576e-05 0
0.999912 -0.000112935 0
0.999893 -0.000143506 0
0.999875 -0.000174583 0
0.999852 -0.000216735 0
0.99983 -0.000258105 0
0.999805 -0.000313135 0
0.999783 -0.000365083 0
0.999758 -0.000432952 0
0.999738 -0.000494234 0
0.999717 -0.000573024 0
0.999703 -0.000640488 0
0.999691 -0.000726091 0
0.999687 -0.0007946 0
0.999688 -0.000880782 0
0.999698 -0.000943537 0
0.999715 -0.00102247 0
0.999742 -0.00107176 0
0.999775 -0.00113498 0
0.999818 -0.00116326 0
0.999867 -0.00120289 0
0.999923 -0.00120398 0
0.999984 -0.00121408 0
1.00005 -0.00118425 0
1.00011 -0.0011618 0
1.00018 -0.00110053 0
1.00024 -0.00104612 0
1.0003 -0.000956334 0
1.00036 -0.000874182 0
1.0004 -0.000761947 0
1.00044 -0.000659381 0
1.00046 -0.000533116 0
1.00048 -0.000419585 0
1.00049 -0.000288946 0
1.00048 -0.000174747 0
1.00047 -4.93906e-05 0
1.00044 5.56649e-05 0
1.00041 0.000167243 0
1.00037 0.000255 0
1.00032 0.000346369 0
1.00027 0.000411185 0
1.00022 0.00047853 0
1.00017 0.00051771 0
1.00012 0.000559969 0
1.00007 0.000573758 0
1.00002 0.000592393 0
0.999979 0.000583577 0
0.999943 0.00058204 0
0.999913 0.000555252 0
0.999889 0.000538271 0
0.999871 0.000499152 0
0.999858 0.00047196 0
0.999851 0.000426301 0
0.999848 0.000393929 0
0.999851 0.000346943 0
0.999855 0.000313673 0
0.999864 0.00026948 0
0.999873 0.000238512 0
0.999885 0.000199877 0
0.999896 0.000173219 0
0.99991 0.000141554 0
0.999921 0.000120109 0
0.999933 9.56649e-05 0
0.999943 7.94543e-05 0
0.999953 6.16391e-05 0
0.999961 5.00917e-05 0
0.999969 3.78199e-05 0
0.999975 3.00584e-05 0
0.999981 2.20674e-05 0
0.999985 1.71432e-05 0
0.999989 1.22261e-05 0
0.999991 9.27817e-06 0
0.999994 6.42125e-06 0
0.999995 4.75718e-06 0
0.999997 3.19149e-06 0
0.999998 2.30669e-06 0
0.999998 1.49837e-06 0
0.999999 1.0558e-06 0
0.999999 6.63249e-07 0
1 4.55294e-07 0
1 2.76256e-07 0
1 1.84614e-07 0
1 1.08053e-07 0
1 7.02429e-08 0
1 3.96038e-08 0
1 2.50252e-08 0
1 1.35722e-08 0
1 8.32948e-09 0
1 4.3389e-09 0
1 2.58412e-09 0
1 1.29084e-09 0
1 7.45406e-10 0
1 3.56467e-10 0
1 1.99403e-10 0
1 9.11268e-11 0
1 4.93326e-11 0
1 2.15029e-11 0
1 1.12542e-11 0
1 4.66899e-12 0
1 2.3599e-12 0
1 9.29744e-13 0
1 4.53338e-13 0
1 1.69153e-13 0
1 7.94999e-14 0
1 2.80102e-14 0
1 1.26735e-14 0
1 4.19996e-15 0
1 1.80639e-15 0
1 5.47304e-16 0
1 2.10903e-16 0
1 4.69995e-17 0
1 2.65291e-17 0
1 1.39206e-17 0
1 1.83472e-17 0
1 1.32089e-17 0
1 1.87646e-17 0
1 1.38221e-17 0
1 1.95701e-17 0
1 1.45843e-17 0
1 2.04935e-17 0
1 1.54878e-17 0
1 2.15475e-17 0
1 1.65786e-17 0
1 2.27569e-17 0
1 1.79285e-17 0
1 2.41446e-17 0
1 1.96499e-17 0
1 2.5711e-17 0
1 2.19197e-17 0
1 2.73648e-17 0
1 2.49747e-17 0
1 2.87144e-17 0
1 2.87144e-17 0
1 2.87144e-17 0
1 2.87144e-17 0
1 2.87144e-17 0
1 0 0
1 0 0
1 0 0
1 0 0
1 0 0
1 0 0
1 0 0
1 0 0
1 0 0
1 0 0
1 0 0
1 0 0
1 0 0
1 0 0
1 0 0
1 0 0
1 0 0
1 0 0
1 0 0
1 0 0
1 0 0
1 0 0
1 0 0
1 0 0
1 0 0
1 0 0
1 0 0
1 0 0
1 0 0
1 0 0
1 0 0
1 0 0
1 -8.2391e-11 0
1 -2.23429e-10 0
1 -4.41868e-10 0
1 -8.69277e-10 0
1 -1.5393e-09 0
1 -2.85857e-09 0
1 -4.88732e-09 0
1 -8.78283e-09 0
1 -1.46244e-08 0
1 -2.55178e-08 0
1 -4.14369e-08 0
1 -7.02654e-08 0
1 -1.11322e-07 0
1 -1.83562e-07 0
1 -2.83835e-07 0
0.999999 -4.5535e-07 0
0.999999 -6.87403e-07 0
0.999999 -1.07347e-06 0
0.999998 -1.5826e-06 0
0.999998 -2.40691e-06 0
0.999997 -3.46643e-06 0
0.999995 -5.13677e-06 0
0.999993 -7.22895e-06 0
0.99999 -1.04423e-05 0
0.999987 -1.43636e-05 0
0.999982 -2.02341e-05 0
0.999977 -2.72108e-05 0
0.999969 -3.73975e-05 0
0.99996 -4.91809e-05 0
0.999948 -6.59699e-05 0
0.999936 -8.48588e-05 0
0.999919 -0.000111135 0
0.999901 -0.00013986 0
0.999879 -0.000178897 0
0.999856 -0.000220302 0
0.999828 -0.000275308 0
0.999801 -0.000331807 0
0.999769 -0.000405229 0
0.99974 -0.000478061 0
0.999707 -0.000570716 0
0.999679 -0.000659127 0
0.999649 -0.000769339 0
0.999628 -0.000869886 0
0.999607 -0.00099285 0
0.999597 -0.00109906 0
0.99959 -0.0012267 0
0.999597 -0.00132929 0
0.99961 -0.00145076 0
0.999636 -0.0015385 0
0.999671 -0.0016414 0
0.999719 -0.00170255 0
0.999775 -0.0017746 0
0.999841 -0.0017987 0
0.999915 -0.0018297 0
0.999994 -0.0018093 0
1.00008 -0.00179288 0
1.00016 -0.00172493 0
1.00025 -0.00165972 0
1.00033 -0.00154628 0
1.00041 -0.00143638 0
1.00047 -0.00128452 0
1.00053 -0.001139 0
1.00057 -0.000959895 0
1.00061 -0.000791658 0
1.00063 -0.000599136 0
1.00063 -0.000423139 0
1.00062 -0.000231869 0
1.0006 -6.31944e-05 0
1.00057 0.000113113 0
1.00053 0.000261102 0
1.00047 0.000411242 0
1.00041 0.000528371 0
1.00035 0.000644713 0
1.00028 0.000724909 0
1.00021 0.000803902 0
1.00015 0.000845477 0
1.00008 0.000887556 0
1.00002 0.000892878 0
0.999971 0.000901881 0
0.999925 0.000876556 0
0.999885 0.000858773 0
0.999854 0.000810509 0
0.999829 0.000773563 0
0.999813 0.000710919 0
0.999802 0.000662646 0
0.9998 0.000593866 0
0.9998 0.00054137 0
0.999808 0.000473458 0
0.999817 0.000422437 0
0.999831 0.000360586 0
0.999844 0.000314996 0
0.999861 0.000262387 0
0.999876 0.000224421 0
0.999893 0.000182353 0
0.999907 0.000152679 0
0.999923 0.000120943 0
0.999934 9.90926e-05 0
0.999947 7.64676e-05 0
0.999956 6.12831e-05 0
0.999966 4.60306e-05 0
0.999973 3.60646e-05 0
0.999979 2.63424e-05 0
0.999984 2.01654e-05 0
0.999988 1.43093e-05 0
0.999991 1.06959e-05 0
0.999993 7.36551e-06 0
0.999995 5.37232e-06 0
0.999997 3.58627e-06 0
0.999998 2.55076e-06 0
0.999998 1.64869e-06 0
0.999999 1.1427e-06 0
0.999999 7.14275e-07 0
1 4.82074e-07 0
1 2.91047e-07 0
1 1.9114e-07 0
1 1.11313e-07 0
1 7.10811e-08 0
1 3.98746e-08 0
1 2.47394e-08 0
1 1.33492e-08 0
1 8.04068e-09 0
1 4.16699e-09 0
1 2.43473e-09 0
1 1.20991e-09 0
1 6.85176e-10 0
1 3.25941e-10 0
1 1.7874e-10 0
1 8.12472e-11 0
1 4.3104e-11 0
1 1.86857e-11 0
1 9.58097e-12 0
1 3.9527e-12 0
1 1.95672e-12 0
1 7.66514e-13 0
1 3.65908e-13 0
1 1.35777e-13 0
1 6.24141e-14 0
1 2.18763e-14 0
1 9.64207e-15 0
1 3.17659e-15 0
1 1.31645e-15 0
1 3.94918e-16 0
1 1.62223e-16 0
1 3.86852e-17 0
1 2.71516e-17 0
1 1.88181e-17 0
1 2.25202e-17 0
1 1.87799e-17 0
1 2.3065e-17 0
1 1.95706e-17 0
1 2.38433e-17 0
1 2.04935e-17 0
1 2.46867e-17 0
1 2.15475e-17 0
1 2.5584e-17 0
1 2.27569e-17 0
1 2.65153e-17 0
1 2.41446e-17 0
1 2.74316e-17 0
1 2.5711e-17 0
1 2.82274e-17 0
1 2.73648e-17 0
1 2.87144e-17 0
1 2.87144e-17 0
1 2.87144e-17 0
1 2.87144e-17 0
1 2.87144e-17 0
1 2.87144e-17 0
1 2.87144e-17 0
1 0 0
1 0 0
1 0 0
1 0 0
1 0 0
1 0 0
1 0 0
1 0 0
1 0 0
1 0 0
1 0 0
1 0 0
1 0 0
1 0 0
1 0 0
1 0 0
1 0 0
1 0 0
1 0 0
1 0 0
1 0 0
1 0 0
1 0 0
1 0 0
1 0 0
1 0 0
1 0 0
1 0 0
1 0 0
1 0 0
1 0 0
1 -1.36871e-10 0
1 -3.45018e-10 0
1 -7.30123e-10 0
1 -1.3374e-09 0
1 -2.52322e-09 0
1 -4.37886e-09 0
1 -7.94386e-09 0
1 -1.33949e-08 0
1 -2.35756e-08 0
1 -3.87513e-08 0
1 -6.62728e-08 0
1 -1.06262e-07 0
1 -1.76701e-07 0
1 -2.76476e-07 0
1 -4.47273e-07 0
0.999999 -6.83135e-07 0
0.999999 -1.07571e-06 0
0.999998 -1.60427e-06 0
0.999997 -2.46009e-06 0
0.999996 -3.58353e-06 0
0.999995 -5.35396e-06 0
0.999993 -7.61966e-06 0
0.99999 -1.10965e-05 0
0.999986 -1.54335e-05 0
0.999981 -2.19174e-05 0
0.999975 -2.97986e-05 0
0.999966 -4.12831e-05 0
0.999956 -5.488e-05 0
0.999943 -7.42012e-05 0
0.999928 -9.64693e-05 0
0.999908 -0.00012734 0
0.999887 -0.000161946 0
0.99986 -0.000208772 0
0.999832 -0.000259773 0
0.999797 -0.000327158 0
0.999763 -0.000398357 0
0.999722 -0.000490259 0
0.999684 -0.000584254 0
0.999639 -0.000702838 0
0.999601 -0.000819879 0
0.999559 -0.00096427 0
0.999526 -0.00110116 0
0.999492 -0.0012664 0
0.999473 -0.00141578 0
0.999455 -0.0015923 0
0.999455 -0.00174262 0
0.999461 -0.00191664 0
0.999487 -0.00205299 0
0.999521 -0.00220778 0
0.999574 -0.00231366 0
0.999637 -0.00243172 0
0.999717 -0.00249138 0
0.999806 -0.00255706 0
0.999906 -0.00255802 0
1.00001 -0.00256011 0
1.00012 -0.00249534 0
1.00024 -0.00242905 0
1.00035 -0.00229838 0
1.00046 -0.00216638 0
1.00055 -0.0019768 0
1.00064 -0.00178903 0
1.00071 -0.00155387 0
1.00077 -0.0013263 0
1.00081 -0.00106352 0
1.00084 -0.000815991 0
1.00084 -0.000545812 0
1.00083 -0.00029947 0
1.0008 -4.18524e-05 0
1.00076 0.000183477 0
1.0007 0.00041115 0
1.00063 0.000599211 0
1.00055 0.000783915 0
1.00046 0.000923606 0
1.00037 0.00105772 0
1.00028 0.00114387 0
1.00019 0.00122543 0
1.00011 0.00125871 0
1.00003 0.00129091 0
0.99996 0.00127702 0
0.999897 0.00126712 0
0.999845 0.00121543 0
0.999802 0.00117331 0
0.99977 0.00109526 0
0.999746 0.00103187 0
0.999734 0.000939211 0
0.999726 0.000865123 0
0.99973 0.000768583 0
0.999736 0.00069286 0
0.999751 0.000601036 0
0.999765 0.000530523 0
0.999787 0.000449359 0
0.999806 0.000388421 0
0.99983 0.000321138 0
0.999849 0.000271805 0
0.999872 0.00021924 0
0.999889 0.000181643 0
0.999909 0.000142844 0
0.999923 0.000115801 0
0.999939 8.87134e-05 0
0.99995 7.03351e-05 0
0.999961 5.24445e-05 0
0.999969 4.06415e-05 0
0.999977 2.94665e-05 0
0.999982 2.23059e-05 0
0.999987 1.57096e-05 0
0.99999 1.16091e-05 0
0.999993 7.93337e-06 0
0.999995 5.71929e-06 0
0.999996 3.78817e-06 0
0.999997 2.66237e-06 0
0.999998 1.70716e-06 0
0.999999 1.16886e-06 0
0.999999 7.24695e-07 0
0.999999 4.83046e-07 0
1 2.89212e-07 0
1 1.87533e-07 0
1 1.08285e-07 0
1 6.82551e-08 0
1 3.79571e-08 0
1 2.32399e-08 0
1 1.24289e-08 0
1 7.386e-09 0
1 3.7931e-09 0
1 2.186e-09 0
1 1.07629e-09 0
1 6.01032e-10 0
1 2.83226e-10 0
1 1.53119e-10 0
1 6.89349e-11 0
1 3.60455e-11 0
1 1.54737e-11 0
1 7.81789e-12 0
1 3.19346e-12 0
1 1.55727e-12 0
1 6.03962e-13 0
1 2.83906e-13 0
1 1.04302e-13 0
1 4.71442e-14 0
1 1.63587e-14 0
1 7.08231e-15 0
1 2.31223e-15 0
1 9.63776e-16 0
1 2.84257e-16 0
1 1.02999e-16 0
1 3.43286e-17 0
1 2.79363e-17 0
1 2.27915e-17 0
1 2.54606e-17 0
1 2.30735e-17 0
1 2.59472e-17 0
1 2.38436e-17 0
1 2.65425e-17 0
1 2.46867e-17 0
1 2.7134e-17 0
1 2.5584e-17 0
1 2.7693e-17 0
1 2.65153e-17 0
1 2.81797e-17 0
1 2.74316e-17 0
1 2.85386e-17 0
1 2.82274e-17 0
1 2.87144e-17 0
1 2.87144e-17 0
1 2.87144e-17 0
1 2.87144e-17 0
1 2.87144e-17 0
1 2.87144e-17 0
1 2.87144e-17 0
1 2.87144e-17 0
1 2.87144e-17 0
1 0 0
1 0 0
1 0 0
1 0 0
1 0 0
1 0 0
1 0 0
1 0 0
1 0 0
1 0 0
1 0 0
1 0 0
1 0 0
1 0 0
1 0 0
1 0 0
1 0 0
1 0 0
1 0 0
1 0 0
1 0 0
1 0 0
1 0 0
1 0 0
1 0 0
1 0 0
1 0 0
1 0 0
1 0 0
1 0 0
1 -2.06884e-10 0
1 -5.56266e-10 0
1 -1.10025e-09 0
1 -2.14072e-09 0
1 -3.78513e-09 0
1 -6.94895e-09 0
1 -1.18592e-08 0
1 -2.10741e-08 0
1 -3.50274e-08 0
1 -6.04606e-08 0
1 -9.80061e-08 0
1 -1.64468e-07 0
1 -2.60123e-07 0
1 -4.24637e-07 0
0.999999 -6.55511e-07 0
0.999999 -1.04148e-06 0
0.999998 -1.56969e-06 0
0.999997 -2.42847e-06 0
0.999996 -3.57453e-06 0
0.999995 -5.38756e-06 0
0.999992 -7.74688e-06 0
0.999989 -1.13801e-05 0
0.999985 -1.59901e-05 0
0.999979 -2.29037e-05 0
0.999973 -3.14549e-05 0
0.999963 -4.39499e-05 0
0.999952 -5.90099e-05 0
0.999936 -8.04591e-05 0
0.999919 -0.00010564 0
0.999895 -0.00014061 0
0.99987 -0.000180571 0
0.999837 -0.000234706 0
0.999803 -0.000294862 0
0.99976 -0.000374384 0
0.999717 -0.000460208 0
0.999665 -0.000570954 0
0.999615 -0.00068683 0
0.999556 -0.000832834 0
0.999504 -0.000980568 0
0.999445 -0.00116238 0
0.999397 -0.00133964 0
0.999346 -0.00155276 0
0.999312 -0.00175181 0
0.999279 -0.00198567 0
0.999268 -0.00219298 0
0.999263 -0.00243096 0
0.999283 -0.00262788 0
0.999314 -0.00284861 0
0.99937 -0.00301327 0
0.99944 -0.00319319 0
0.999533 -0.00330346 0
0.99964 -0.00342015 0
0.999764 -0.00345705 0
0.9999 -0.00349283 0
1.00004 -0.00344368 0
1.0002 -0.00338858 0
1.00035 -0.00324935 0
1.0005 -0.00310303 0
1.00063 -0.00287929 0
1.00076 -0.00265137 0
1.00088 -0.00235776 0
1.00097 -0.00206667 0
1.00105 -0.00172505 0
1.0011 -0.00139559 0
1.00113 -0.00103215 0
1.00113 -0.00069225 0
1.00111 -0.000334252 0
1.00107 -1.14875e-05 0
1.00101 0.000316 0
1.00093 0.000597583 0
1.00083 0.000874341 0
1.00073 0.00109671 0
1.00061 0.00130918 0
1.00049 0.00146177 0
1.00037 0.00160387 0
1.00025 0.00168399 0
1.00014 0.00175684 0
1.00004 0.00176905 0
0.999943 0.00177993 0
0.999859 0.0017345 0
0.999788 0.00169513 0
0.999731 0.00160615 0
0.999685 0.0015307 0
0.999655 0.00141382 0
0.999634 0.0013169 0
0.999628 0.00118733 0
0.999627 0.00108228 0
0.99964 0.000953104 0
0.999654 0.00085076 0
0.999679 0.0007319 0
0.999702 0.000639921 0
0.999733 0.000537687 0
0.999759 0.000460466 0
0.999791 0.00037772 0
0.999817 0.000316761 0
0.999846 0.000253515 0
0.999869 0.000208112 0
0.999893 0.000162384 0
0.999911 0.000130424 0
0.99993 9.91309e-05 0
0.999943 7.78586e-05 0