# vtk DataFile Version 3.0
Flow field at step 1200
ASCII
DATASET STRUCTURED_GRID
DIMENSIONS 200 100 1
POINTS 20000 float
0.005 0.005 0
0.015 0.005 0
0.025 0.005 0
0.035 0.005 0
0.045 0.005 0
0.055 0.005 0
0.065 0.005 0
0.075 0.005 0
0.085 0.005 0
0.095 0.005 0
0.105 0.005 0
0.115 0.005 0
0.125 0.005 0
0.135 0.005 0
0.145 0.005 0
0.155 0.005 0
0.165 0.005 0
0.175 0.005 0
0.185 0.005 0
0.195 0.005 0
0.205 0.005 0
0.215 0.005 0
0.225 0.005 0
0.235 0.005 0
0.245 0.005 0
0.255 0.005 0
0.265 0.005 0
0.275 0.005 0
0.285 0.005 0
0.295 0.005 0
0.305 0.005 0
0.315 0.005 0
0.325 0.005 0
0.335 0.005 0
0.345 0.005 0
0.355 0.005 0
0.365 0.005 0
0.375 0.005 0
0.385 0.005 0
0.395 0.005 0
0.405 0.005 0
0.415 0.005 0
0.425 0.005 0
0.435 0.005 0
0.445 0.005 0
0.455 0.005 0
0.465 0.005 0
0.475 0.005 0
0.485 0.005 0
0.495 0.005 0
0.505 0.005 0
0.515 0.005 0
0.525 0.005 0
0.535 0.005 0
0.545 0.005 0
0.555 0.005 0
0.565 0.005 0
0.575 0.005 0
0.585 0.005 0
0.595 0.005 0
0.605 0.005 0
0.615 0.005 0
0.625 0.005 0
0.635 0.005 0
0.645 0.005 0
0.655 0.005 0
0.665 0.005 0
0.675 0.005 0
0.685 0.005 0
0.695 0.005 0
0.705 0.005 0
0.715 0.005 0
0.725 0.005 0
0.735 0.005 0
0.745 0.005 0
0.755 0.005 0
0.765 0.005 0
0.775 0.005 0
0.785 0.005 0
0.795 0.005 0
0.805 0.005 0
0.815 0.005 0
0.825 0.005 0
0.835 0.005 0
0.845 0.005 0
0.855 0.005 0
0.865 0.005 0
0.875 0.005 0
0.885 0.005 0
0.895 0.005 0
0.905 0.005 0
0.915 0.005 0
0.925 0.005 0
0.935 0.005 0
0.945 0.005 0
0.955 0.005 0
0.965 0.005 0
0.975 0.005 0
0.985 0.005 0
0.995 0.005 0
1.005 0.005 0
1.015 0.005 0
1.025 0.005 0
1.035 0.005 0
1.045 0.005 0
1.055 0.005 0
1.065 0.005 0
1.075 0.005 0
1.085 0.005 0
1.095 0.005 0
1.105 0.005 0
1.115 0.005 0
1.125 0.005 0
1.135 0.005 0
1.145 0.005 0
1.155 0.005 0
1.165 0.005 0
1.175 0.005 0
1.185 0.005 0
1.195 0.005 0
1.205 0.005 0
1.215 0.005 0
1.225 0.005 0
1.235 0.005 0
1.245 0.005 0
1.255 0.005 0
1.265 0.005 0
1.275 0.005 0
1.285 0.005 0
1.295 0.005 0
1.305 0.005 0
1.315 0.005 0
1.325 0.005 0
1.335 0.005 0
1.345 0.005 0
1.355 0.005 0
1.365 0.005 0
1.375 0.005 0
1.385 0.005 0
1.395 0.005 0
1.405 0.005 0
1.415 0.005 0
1.425 0.005 0
1.435 0.005 0
1.445 0.005 0
1.455 0.005 0
1.465 0.005 0
1.475 0.005 0
1.485 0.005 0
1.495 0.005 0
1.505 0.005 0
1.515 0.005 0
1.525 0.005 0
1.535 0.005 0
1.545 0.005 0
1.555 0.005 0
1.565 0.005 0
1.575 0.005 0
1.585 0.005 0
1.595 0.005 0
1.605 0.005 0
1.615 0.005 0
1.625 0.005 0
1.635 0.005 0
1.645 0.005 0
1.655 0.005 0
1.665 0.005 0
1.675 0.005 0
1.685 0.005 0
1.695 0.005 0
1.705 0.005 0
1.715 0.005 0
1.725 0.005 0
1.735 0.005 0
1.745 0.005 0
1.755 0.005 0
1.765 0.005 0
1.775 0.005 0
1.785 0.005 0
1.795 0.005 0
1.805 0.005 0
1.815 0.005 0
1.825 0.005 0
1.835 0.005 0
1.845 0.005 0
1.855 0.005 0
1.865 0.005 0
1.875 0.005 0
1.885 0.005 0
1.895 0.005 0
1.905 0.005 0
1.915 0.005 0
1.925 0.005 0
1.935 0.005 0
1.945 0.005 0
1.955 0.005 0
1.965 0.005 0
1.975 0.005 0
1.985 0.005 0
1.995 0.005 0
0.005 0.015 0
0.015 0.015 0
0.025 0.015 0
0.035 0.015 0
0.045 0.015 0
0.055 0.015 0
0.065 0.015 0
0.075 0.015 0
0.085 0.015 0
0.095 0.015 0
0.105 0.015 0
0.115 0.015 0
0.125 0.015 0
0.135 0.015 0
0.145 0.015 0
0.155 0.015 0
0.165 0.015 0
0.175 0.015 0
0.185 0.015 0
0.195 0.015 0
0.205 0.015 0
0.215 0.015 0
0.225 0.015 0
0.235 0.015 0
0.245 0.015 0
0.255 0.015 0
0.265 0.015 0
0.275 0.015 0
0.285 0.015 0
0.295 0.015 0
0.305 0.015 0
0.315 0.015 0
0.325 0.015 0
0.335 0.015 0
0.345 0.015 0
0.355 0.015 0
0.365 0.015 0
0.375 0.015 0
0.385 0.015 0
0.395 0.015 0
0.405 0.015 0
0.415 0.015 0
0.425 0.015 0
0.435 0.015 0
0.445 0.015 0
0.455 0.015 0
0.465 0.015 0
0.475 0.015 0
0.485 0.015 0
0.495 0.015 0
0.505 0.015 0
0.515 0.015 0
0.525 0.015 0
0.535 0.015 0
0.545 0.015 0
0.555 0.015 0
0.565 0.015 0
0.575 0.015 0
0.585 0.015 0
0.595 0.015 0
0.605 0.015 0
0.615 0.015 0
0.625 0.015 0
0.635 0.015 0
0.645 0.015 0
0.655 0.015 0
0.665 0.015 0
0.675 0.015 0
0.685 0.015 0
0.695 0.015 0
0.705 0.015 0
0.715 0.015 0
0.725 0.015 0
0.735 0.015 0
0.745 0.015 0
0.755 0.015 0
0.765 0.015 0
0.775 0.015 0
0.785 0.015 0
0.795 0.015 0
0.805 0.015 0
0.815 0.015 0
0.825 0.015 0
0.835 0.015 0
0.845 0.015 0
0.855 0.015 0
0.865 0.015 0
0.875 0.015 0
0.885 0.015 0
0.895 0.015 0
0.905 0.015 0
0.915 0.015 0
0.925 0.015 0
0.935 0.015 0
0.945 0.015 0
0.955 0.015 0
0.965 0.015 0
0.975 0.015 0
0.985 0.015 0
0.995 0.015 0
1.005 0.015 0
1.015 0.015 0
1.025 0.015 0
1.035 0.015 0
1.045 0.015 0
1.055 0.015 0
1.065 0.015 0
1.075 0.015 0
1.085 0.015 0
1.095 0.015 0
1.105 0.015 0
1.115 0.015 0
1.125 0.015 0
1.135 0.015 0
1.145 0.015 0
1.155 0.015 0
1.165 0.015 0
1.175 0.015 0
1.185 0.015 0
1.195 0.015 0
1.205 0.015 0
1.215 0.015 0
1.225 0.015 0
1.235 0.015 0
1.245 0.015 0
1.255 0.015 0
1.265 0.015 0
1.275 0.015 0
1.285 0.015 0
1.295 0.015 0
1.305 0.015 0
1.315 0.015 0
1.325 0.015 0
1.335 0.015 0
1.345 0.015 0
1.355 0.015 0
1.365 0.015 0
1.375 0.015 0
1.385 0.015 0
1.395 0.015 0
1.405 0.015 0
1.415 0.015 0
1.425 0.015 0
1.435 0.015 0
1.445 0.015 0
1.455 0.015 0
1.465 0.015 0
1.475 0.015 0
1.485 0.015 0
1.495 0.015 0
1.505 0.015 0
1.515 0.015 0
1.525 0.015 0
1.535 0.015 0
1.545 0.015 0
1.555 0.015 0
1.565 0.015 0
1.575 0.015 0
1.585 0.015 0
1.595 0.015 0
1.605 0.015 0
1.615 0.015 0
1.625 0.015 0
1.635 0.015 0
1.645 0.015 0
1.655 0.015 0
1.665 0.015 0
1.675 0.015 0
1.685 0.015 0
1.695 0.015 0
1.705 0.015 0
1.715 0.015 0
1.725 0.015 0
1.735 0.015 0
1.745 0.015 0
1.755 0.015 0
1.765 0.015 0
1.775 0.015 0
1.785 0.015 0
1.795 0.015 0
1.805 0.015 0
1.815 0.015 0
1.825 0.015 0
1.835 0.015 0
1.845 0.015 0
1.855 0.015 0
1.865 0.015 0
1.875 0.015 0
1.885 0.015 0
1.895 0.015 0
1.905 0.015 0
1.915 0.015 0
1.925 0.015 0
1.935 0.015 0
1.945 0.015 0
1.955 0.015 0
1.965 0.015 0
1.975 0.015 0
1.985 0.015 0
1.995 0.015 0
0.005 0.025 0
0.015 0.025 0
0.025 0.025 0
0.035 0.025 0
0.045 0.025 0
0.055 0.025 0
0.065 0.025 0
0.075 0.025 0
0.085 0.025 0
0.095 0.025 0
0.105 0.025 0
0.115 0.025 0
0.125 0.025 0
0.135 0.025 0
0.145 0.025 0
0.155 0.025 0
0.165 0.025 0
0.175 0.025 0
0.185 0.025 0
0.195 0.025 0
0.205 0.025 0
0.215 0.025 0
0.225 0.025 0
0.235 0.025 0
0.245 0.025 0
0.255 0.025 0
0.265 0.025 0
0.275 0.025 0
0.285 0.025 0
0.295 0.025 0
0.305 0.025 0
0.315 0.025 0
0.325 0.025 0
0.335 0.025 0
0.345 0.025 0
0.355 0.025 0
0.365 0.025 0
0.375 0.025 0
0.385 0.025 0
0.395 0.025 0
0.405 0.025 0
0.415 0.025 0
0.425 0.025 0
0.435 0.025 0
0.445 0.025 0
0.455 0.025 0
0.465 0.025 0
0.475 0.025 0
0.485 0.025 0
0.495 0.025 0
0.505 0.025 0
0.515 0.025 0
0.525 0.025 0
0.535 0.025 0
0.545 0.025 0
0.555 0.025 0
0.565 0.025 0
0.575 0.025 0
0.585 0.025 0
0.595 0.025 0
0.605 0.025 0
0.615 0.025 0
0.625 0.025 0
0.635 0.025 0
0.645 0.025 0
0.655 0.025 0
0.665 0.025 0
0.675 0.025 0
0.685 0.025 0
0.695 0.025 0
0.705 0.025 0
0.715 0.025 0
0.725 0.025 0
0.735 0.025 0
0.745 0.025 0
0.755 0.025 0
0.765 0.025 0
0.775 0.025 0
0.785 0.025 0
0.795 0.025 0
0.805 0.025 0
0.815 0.025 0
0.825 0.025 0
0.835 0.025 0
0.845 0.025 0
0.855 0.025 0
0.865 0.025 0
0.875 0.025 0
0.885 0.025 0
0.895 0.025 0
0.905 0.025 0
0.915 0.025 0
0.925 0.025 0
0.935 0.025 0
0.945 0.025 0
0.955 0.025 0
0.965 0.025 0
0.975 0.025 0
0.985 0.025 0
0.995 0.025 0
1.005 0.025 0
1.015 0.025 0
1.025 0.025 0
1.035 0.025 0
1.045 0.025 0
1.055 0.025 0
1.065 0.025 0
1.075 0.025 0
1.085 0.025 0
1.095 0.025 0
1.105 0.025 0
1.115 0.025 0
1.125 0.025 0
1.135 0.025 0
1.145 0.025 0
1.155 0.025 0
1.165 0.025 0
1.175 0.025 0
1.185 0.025 0
1.195 0.025 0
1.205 0.025 0
1.215 0.025 0
1.225 0.025 0
1.235 0.025 0
1.245 0.025 0
1.255 0.025 0
1.265 0.025 0
1.275 0.025 0
1.285 0.025 0
1.295 0.025 0
1.305 0.025 0
1.315 0.025 0
1.325 0.025 0
1.335 0.025 0
1.345 0.025 0
1.355 0.025 0
1.365 0.025 0
1.375 0.025 0
1.385 0.025 0
1.395 0.025 0
1.405 0.025 0
1.415 0.025 0
1.425 0.025 0
1.435 0.025 0
1.445 0.025 0
1.455 0.025 0
1.465 0.025 0
1.475 0.025 0
1.485 0.025 0
1.495 0.025 0
1.505 0.025 0
1.515 0.025 0
1.525 0.025 0
1.535 0.025 0
1.545 0.025 0
1.555 0.025 0
1.565 0.025 0
1.575 0.025 0
1.585 0.025 0
1.595 0.025 0
1.605 0.025 0
1.615 0.025 0
1.625 0.025 0
1.635 0.025 0
1.645 0.025 0
1.655 0.025 0
1.665 0.025 0
1.675 0.025 0
1.685 0.025 0
1.695 0.025 0
1.705 0.025 0
1.715 0.025 0
1.725 0.025 0
1.735 0.025 0
1.745 0.025 0
1.755 0.025 0
1.765 0.025 0
1.775 0.025 0
1.785 0.025 0
1.795 0.025 0
1.805 0.025 0
1.815 0.025 0
1.825 0.025 0
1.835 0.025 0
1.845 0.025 0
1.855 0.025 0
1.865 0.025 0
1.875 0.025 0
1.885 0.025 0
1.895 0.025 0
1.905 0.025 0
1.915 0.025 0
1.925 0.025 0
1.935 0.025 0
1.945 0.025 0
1.955 0.025 0
1.965 0.025 0
1.975 0.025 0
1.985 0.025 0
1.995 0.025 0
0.005 0.035 0
0.015 0.035 0
0.025 0.035 0
0.035 0.035 0
0.045 0.035 0
0.055 0.035 0
0.065 0.035 0
0.075 0.035 0
0.085 0.035 0
0.095 0.035 0
0.105 0.035 0
0.115 0.035 0
0.125 0.035 0
0.135 0.035 0
0.145 0.035 0
0.155 0.035 0
0.165 0.035 0
0.175 0.035 0
0.185 0.035 0
0.195 0.035 0
0.205 0.035 0
0.215 0.035 0
0.225 0.035 0
0.235 0.035 0
0.245 0.035 0
0.255 0.035 0
0.265 0.035 0
0.275 0.035 0
0.285 0.035 0
0.295 0.035 0
0.305 0.035 0
0.315 0.035 0
0.325 0.035 0
0.335 0.035 0
0.345 0.035 0
0.355 0.035 0
0.365 0.035 0
0.375 0.035 0
0.385 0.035 0
0.395 0.035 0
0.405 0.035 0
0.415 0.035 0
0.425 0.035 0
0.435 0.035 0
0.445 0.035 0
0.455 0.035 0
0.465 0.035 0
0.475 0.035 0
0.485 0.035 0
0.495 0.035 0
0.505 0.035 0
0.515 0.035 0
0.525 0.035 0
0.535 0.035 0
0.545 0.035 0
0.555 0.035 0
0.565 0.035 0
0.575 0.035 0
0.585 0.035 0
0.595 0.035 0
0.605 0.035 0
0.615 0.035 0
0.625 0.035 0
0.635 0.035 0
0.645 0.035 0
0.655 0.035 0
0.665 0.035 0
0.675 0.035 0
0.685 0.035 0
0.695 0.035 0
0.705 0.035 0
0.715 0.035 0
0.725 0.035 0
0.735 0.035 0
0.745 0.035 0
0.755 0.035 0
0.765 0.035 0
0.775 0.035 0
0.785 0.035 0
0.795 0.035 0
0.805 0.035 0
0.815 0.035 0
0.825 0.035 0
0.835 0.035 0
0.845 0.035 0
0.855 0.035 0
0.865 0.035 0
0.875 0.035 0
0.885 0.035 0
0.895 0.035 0
0.905 0.035 0
0.915 0.035 0
0.925 0.035 0
0.935 0.035 0
0.945 0.035 0
0.955 0.035 0
0.965 0.035 0
0.975 0.035 0
0.985 0.035 0
0.995 0.035 0
1.005 0.035 0
1.015 0.035 0
1.025 0.035 0
1.035 0.035 0
1.045 0.035 0
[...]
POINT_DATA 20000
VECTORS velocity float
0.959236 -2.09644e-05 0
0.924465 -4.72558e-05 0
0.895053 -7.79466e-05 0
0.870331 -0.000111634 0
0.849655 -0.000148243 0
0.832431 -0.000186321 0
0.818129 -0.000226617 0
0.806294 -0.000267476 0
0.796536 -0.000310374 0
0.788527 -0.000353341 0
0.781997 -0.000398483 0
0.776721 -0.000443446 0
0.772517 -0.000490882 0
0.769236 -0.000538021 0
0.766754 -0.00058799 0
0.764976 -0.000637594 0
0.763821 -0.000690377 0
0.763225 -0.000742727 0
0.763137 -0.000798549 0
0.763516 -0.000853834 0
0.764328 -0.000912791 0
0.765548 -0.000971045 0
0.767154 -0.00103305 0
0.769129 -0.0010941 0
0.771461 -0.00115885 0
0.774139 -0.00122228 0
0.777155 -0.0012892 0
0.780503 -0.00135432 0
0.784179 -0.00142254 0
0.788179 -0.00148834 0
0.7925 -0.00155669 0
0.79714 -0.00162186 0
0.802096 -0.00168884 0
0.807367 -0.00175175 0
0.812951 -0.00181558 0
0.818844 -0.00187429 0
0.825046 -0.00193292 0
0.831551 -0.00198529 0
0.838356 -0.00203645 0
0.845457 -0.00208016 0
0.852846 -0.00212151 0
0.860518 -0.0021542 0
0.868463 -0.00218341 0
0.876674 -0.00220282 0
0.885139 -0.00221772 0
0.893846 -0.0022218 0
0.902784 -0.00222055 0
0.911937 -0.00220766 0
0.921291 -0.00218887 0
0.930829 -0.00215791 0
0.940533 -0.00212078 0
0.950384 -0.00207128 0
0.960363 -0.00201574 0
0.970449 -0.00194795 0
0.98062 -0.00187463 0
0.990855 -0.00178958 0
1.00113 -0.00169987 0
1.01143 -0.00159929 0
1.02171 -0.0014953 0
1.03197 -0.0013816 0
1.04218 -0.00126604 0
1.05231 -0.00114217 0
1.06234 -0.00101821 0
1.07224 -0.000887526 0
1.082 -0.000758686 0
1.09158 -0.000624784 0
1.10098 -0.000494726 0
1.11016 -0.000361274 0
1.1191 -0.000233649 0
1.12779 -0.000104222 0
1.1362 1.74946e-05 0
1.14432 0.000139572 0
1.15212 0.000252226 0
1.1596 0.000364014 0
1.16673 0.000464893 0
1.17351 0.000563948 0
1.17991 0.000650883 0
1.18592 0.000735343 0
1.19154 0.000806782 0
1.19676 0.000875426 0
1.20156 0.000930478 0
1.20594 0.000982754 0
1.20991 0.0010212 0
1.21344 0.00105723 0
1.21655 0.00107952 0
1.21923 0.00110007 0
1.22149 0.00110725 0
1.22333 0.00111365 0
1.22476 0.00110733 0
1.22579 0.00110142 0
1.22642 0.00108363 0
1.22667 0.00106761 0
1.22655 0.00104069 0
1.22609 0.00101702 0
1.22528 0.000983488 0
1.22416 0.00095471 0
1.22275 0.000917114 0
1.22106 0.000885732 0
1.21912 0.000846502 0
1.21694 0.000814845 0
1.21455 0.000776182 0
1.21198 0.000746294 0
1.20925 0.000710071 0
1.20637 0.000683636 0
1.20337 0.000651338 0
1.20027 0.000629633 0
1.19709 0.000602332 0
1.19385 0.000586221 0
1.19057 0.000564579 0
1.18726 0.000554531 0
1.18394 0.000538839 0
1.18062 0.000534974 0
1.17732 0.000525201 0
1.17404 0.000527347 0
1.1708 0.00052321 0
1.1676 0.000530972 0
1.16444 0.000531996 0
1.16135 0.00054482 0
1.1583 0.000550412 0
1.15532 0.000567647 0
1.15241 0.000577148 0
1.14955 0.000598096 0
1.14676 0.000610832 0
1.14404 0.000634793 0
1.14137 0.000650109 0
1.13877 0.000676406 0
1.13622 0.000693697 0
1.13372 0.000721699 0
1.13128 0.000740421 0
1.12888 0.000769555 0
1.12653 0.000789238 0
1.12422 0.000818994 0
1.12194 0.000839241 0
1.1197 0.00086917 0
1.11749 0.000889657 0
1.1153 0.000919368 0
1.11313 0.000939837 0
1.11099 0.000968992 0
1.10885 0.000989244 0
1.10673 0.00101755 0
1.10462 0.00103743 0
1.10251 0.00106463 0
1.1004 0.00108404 0
1.09829 0.0011099 0
1.09618 0.00112876 0
1.09407 0.00115308 0
1.09195 0.00117134 0
1.08982 0.00119393 0
1.08769 0.00121155 0
1.08554 0.00123225 0
1.08338 0.00124919 0
1.0812 0.00126784 0
1.07902 0.00128409 0
1.07681 0.00130053 0
1.0746 0.00131606 0
1.07237 0.00133016 0
1.07012 0.00134495 0
1.06786 0.00135657 0
1.06558 0.00137058 0
1.06329 0.0013796 0
1.06099 0.0013928 0
1.05867 0.00139911 0
1.05634 0.00141144 0
1.05401 0.00141495 0
1.05166 0.00142635 0
1.0493 0.00142699 0
1.04693 0.0014374 0
1.04456 0.0014351 0
1.04219 0.00144445 0
1.03981 0.00143918 0
1.03744 0.00144738 0
1.03506 0.00143913 0
1.03269 0.0014461 0
1.03033 0.00143487 0
1.02797 0.00144052 0
1.02563 0.00142636 0
1.02329 0.00143057 0
1.02098 0.00141355 0
1.01869 0.0014162 0
1.01641 0.00139641 0
1.01417 0.00139738 0
1.01195 0.00137492 0
1.00977 0.00137407 0
1.00762 0.00134908 0
1.00552 0.00134625 0
1.00346 0.00131887 0
1.00145 0.0013139 0
0.99949 0.0012843 0
0.997591 0.00127703 0
0.995755 0.00124541 0
0.993986 0.00123572 0
0.992292 0.0012024 0
0.990676 0.00119031 0
0.989144 0.00115593 0
0.987703 0.00114184 0
0.986358 0.00110792 0
0.985119 0.00109319 0
0.984003 0.00106362 0
0.983052 0.00105188 0
0.982392 0.0010368 0
0.959222 -6.27801e-05 0
0.924441 -0.000141849 0
0.89502 -0.000233419 0
0.870291 -0.000335078 0
0.84961 -0.000443938 0
0.832381 -0.000559238 0
0.818076 -0.000678661 0
0.806238 -0.000802797 0
0.796477 -0.000929529 0
0.788466 -0.00106049 0
0.781933 -0.00119347 0
0.776655 -0.0013309 0
0.772449 -0.00147031 0
0.769164 -0.00161473 0
0.766681 -0.00176132 0
0.7649 -0.00191357 0
0.763742 -0.00206822 0
0.763143 -0.00222911 0
0.763052 -0.00239254 0
0.763428 -0.00256261 0
0.764237 -0.00273515 0
0.765454 -0.00291446 0
0.767057 -0.00309591 0
0.769029 -0.00328389 0
0.771359 -0.00347336 0
0.774034 -0.00366875 0
0.777049 -0.00386457 0
0.780396 -0.00406523 0
0.784071 -0.00426484 0
0.78807 -0.00446773 0
0.792391 -0.00466763 0
0.797032 -0.00486877 0
0.80199 -0.00506452 0
0.807263 -0.00525897 0
0.81285 -0.00544519 0
0.818748 -0.00562715 0
0.824955 -0.00579768 0
0.831466 -0.00596066 0
0.838278 -0.00610872 0
0.845387 -0.00624574 0
0.852785 -0.00636427 0
0.860466 -0.00646823 0
0.868423 -0.00655019 0
0.876644 -0.00661426 0
0.885122 -0.00665313 0
0.893842 -0.00667121 0
0.902793 -0.0066614 0
0.91196 -0.00662857 0
0.921328 -0.0065659 0
0.930879 -0.00647882 0
0.940596 -0.00636091 0
0.950461 -0.00621823 0
0.960453 -0.00604476 0
0.970551 -0.00584731 0
0.980734 -0.00562023 0
0.990979 -0.00537108 0
1.00126 -0.00509459 0
1.01157 -0.00479904 0
1.02186 -0.00447943 0
1.03213 -0.00414476 0
1.04233 -0.00379019 0
1.05247 -0.00342531 0
1.06249 -0.00304533 0
1.0724 -0.00266038 0
1.08215 -0.00226554 0
1.09173 -0.00187136 0
1.10111 -0.00147266 0
1.11028 -0.0010803 0
1.11922 -0.000688691 0
1.12789 -0.000308901 0
1.13629 6.51977e-05 0
1.14439 0.000422426 0
1.15218 0.000769567 0
1.15964 0.00109541 0
1.16675 0.00140748 0
1.1735 0.00169461 0
1.17988 0.00196515 0
1.18587 0.00220799 0
1.19147 0.00243237 0
1.19666 0.00262728 0
1.20144 0.00280289 0
1.2058 0.00294825 0
1.20974 0.00307445 0
1.21325 0.00317065 0
1.21634 0.00324883 0
1.219 0.00329817 0
1.22123 0.00333153 0
1.22305 0.00333806 0
1.22446 0.00333142 0
1.22547 0.00330064 0
1.22608 0.00326012 0
1.22632 0.00319867 0
1.22618 0.0031313 0
1.2257 0.00304652 0
1.22489 0.00295986 0
1.22375 0.00285938 0
1.22233 0.00276104 0
1.22063 0.00265236 0
1.21868 0.00254962 0
1.21649 0.00243971 0
1.2141 0.00233914 0
1.21152 0.00223412 0
1.20878 0.00214132 0
1.2059 0.00204621 0
1.2029 0.00196562 0
1.19979 0.00188424 0
1.19661 0.00181905 0
1.19337 0.00175399 0
1.19009 0.00170617 0
1.18678 0.00165882 0
1.18346 0.00162924 0
1.18014 0.00159996 0
1.17683 0.00158851 0
1.17356 0.00157681 0
1.17031 0.00158263 0
1.16711 0.00158733 0
1.16396 0.00160898 0
1.16086 0.00162845 0
1.15782 0.00166413 0
1.15483 0.00169646 0
1.15192 0.00174415 0
1.14906 0.00178731 0
1.14627 0.00184494 0
1.14354 0.00189689 0
1.14088 0.00196243 0
1.13827 0.00202125 0
1.13572 0.00209279 0
1.13323 0.00215668 0
1.13078 0.00223248 0
1.12838 0.00229987 0
1.12603 0.00237837 0
1.12372 0.00244789 0
1.12145 0.00252774 0
1.1192 0.00259823 0
1.11699 0.00267827 0
1.1148 0.00274874 0
1.11264 0.00282799 0
1.11049 0.00289767 0
1.10836 0.00297529 0
1.10623 0.00304353 0
1.10412 0.00311884 0
1.10201 0.00318513 0
1.09991 0.00325752 0
1.0978 0.00332145 0
1.0957 0.00339042 0
1.09358 0.00345166 0
1.09147 0.00351677 0
1.08934 0.00357504 0
1.08721 0.0036359 0
1.08506 0.00369097 0
1.08291 0.00374722 0
1.08074 0.00379888 0
1.07855 0.00385019 0
1.07635 0.00389825 0
1.07414 0.00394429 0
1.07191 0.00398855 0
1.06967 0.00402904 0
1.06742 0.00406931 0
1.06515 0.00410395 0
1.06286 0.00414003 0
1.06056 0.00416856 0
1.05825 0.00420026 0
1.05593 0.00422241 0
1.05359 0.00424954 0
1.05125 0.00426509 0
1.0489 0.00428743 0
1.04654 0.00429619 0
1.04418 0.00431355 0
1.04181 0.00431534 0
1.03944 0.00432753 0
1.03707 0.00432223 0
1.0347 0.00432907 0
1.03234 0.00431658 0
1.02998 0.0043179 0
1.02763 0.00429819 0
1.02529 0.00429382 0
1.02297 0.00426688 0
1.02066 0.00425667 0
1.01838 0.00422254 0
1.01611 0.00420634 0
1.01387 0.00416509 0
1.01166 0.00414274 0
1.00949 0.00409447 0
1.00735 0.0040658 0
1.00525 0.00401063 0
1.0032 0.00397547 0
1.00119 0.00391355 0
0.999242 0.00387173 0
0.997349 0.00380327 0
0.995519 0.0037547 0
0.993757 0.00368007 0
0.992068 0.00362493 0
0.990458 0.00354503 0
0.988931 0.0034843 0
0.987495 0.00340144 0
0.986155 0.00333818 0
0.98492 0.00325857 0
0.983807 0.00320119 0
0.982861 0.00314106 0
0.982203 0.00311111 0
0.959195 -0.000104557 0
0.924391 -0.000236011 0
0.894953 -0.000388727 0
0.870211 -0.000557498 0
0.849519 -0.000739288 0
0.832282 -0.000930449 0
0.81797 -0.00113015 0
0.806126 -0.0013357 0
0.796359 -0.00154791 0
0.788343 -0.00176451 0
0.781806 -0.00198749 0
0.776524 -0.00221458 0
0.772312 -0.00244861 0
0.769023 -0.0026871 0
0.766534 -0.00293343 0
0.764747 -0.00318476 0
0.763583 -0.00344485 0
0.762979 -0.0037104 0
0.762882 -0.00398545 0
0.763252 -0.00426615 0
0.764055 -0.00455669 0
0.765266 -0.00485269 0
0.766863 -0.00515837 0
0.76883 -0.00546879 0
0.771154 -0.00578813 0
0.773826 -0.00611086 0
0.776836 -0.00644104 0
0.78018 -0.00677257 0
0.783853 -0.0071093 0
0.787852 -0.0074446 0
0.792173 -0.00778202 0
0.796816 -0.00811442 0
0.801777 -0.00844508 0
0.807055 -0.00876635 0
0.812648 -0.00908123 0
0.818555 -0.00938168 0
0.824771 -0.00967044 0
0.831295 -0.00993915 0
0.838121 -0.0101904 0
0.845246 -0.0104157 0
0.852662 -0.0106176 0
0.860363 -0.0107876 0
0.86834 -0.0109284 0
0.876585 -0.0110315 0
0.885087 -0.0111002 0
0.893833 -0.0111262 0
0.90281 -0.0111134 0
0.912004 -0.0110542 0
0.9214 -0.0109529 0
0.930979 -0.0108027 0
0.940723 -0.0106091 0
0.950614 -0.0103657 0
0.960632 -0.0100791 0
0.970754 -0.009744 0
0.98096 -0.00936791 0
0.991226 -0.00894622 0
1.00153 -0.00848769 0
1.01185 -0.00798837 0
1.02215 -0.00745807 0
1.03243 -0.00689336 0
1.04264 -0.00630501 0
1.05278 -0.0056899 0
1.0628 -0.00505958 0
1.0727 -0.00441108 0
1.08245 -0.0037565 0
1.09201 -0.00309277 0
1.10139 -0.00243238 0
1.11054 -0.00177189 0
1.11945 -0.00112401 0
1.12809 -0.000484725 0
1.13646 0.000133252 0
1.14453 0.000734684 0
1.15228 0.00130701 0
1.1597 0.00185592 0
1.16678 0.00236912 0
1.17349 0.00285336 0
1.17982 0.00329672 0
1.18577 0.00370711 0
1.19132 0.00407302 0
1.19646 0.00440359 0
1.2012 0.00468777 0
1.20551 0.00493595 0
1.2094 0.0051375 0
1.21287 0.00530403 0
1.2159 0.00542533 0
1.21852 0.00551419 0
1.22071 0.00556067 0
1.22249 0.00557867 0
1.22386 0.00555843 0
1.22483 0.00551481 0
1.2254 0.00543809 0
1.2256 0.00534393 0
1.22544 0.00522246 0
1.22493 0.00509 0
1.22409 0.00493634 0
1.22293 0.00477828 0
1.22148 0.00460509 0
1.21976 0.00443387 0
1.21779 0.00425321 0
1.21559 0.00408037 0
1.21319 0.00390314 0
1.2106 0.0037388 0
1.20785 0.00357425 0
1.20496 0.00342673 0
1.20195 0.00328218 0
1.19884 0.00315779 0
1.19565 0.00303851 0
1.19241 0.0029415 0
1.18912 0.00285075 0
1.18581 0.00278343 0
1.18249 0.00272262 0
1.17917 0.00268557 0
1.17586 0.00265453 0
1.17258 0.0026469 0
1.16934 0.00264419 0
1.16613 0.00266403 0
1.16298 0.0026873 0
1.15988 0.00273191 0
1.15683 0.00277818 0
1.15385 0.00284435 0
1.15093 0.00291032 0
1.14808 0.00299466 0
1.14528 0.00307694 0
1.14256 0.00317604 0
1.13989 0.00327131 0
1.13728 0.00338192 0
1.13473 0.00348708 0
1.13223 0.00360618 0
1.12979 0.00371843 0
1.12739 0.00384329 0
1.12503 0.00396015 0
1.12272 0.00408841 0
1.12045 0.00420776 0
1.11821 0.00433736 0
1.11599 0.00445739 0
1.11381 0.00458659 0
1.11164 0.00470581 0
1.10949 0.00483315 0
1.10736 0.00495033 0
1.10524 0.00507458 0
1.10313 0.00518874 0
1.10103 0.00530888 0
1.09892 0.00541921 0
1.09682 0.00553437 0
1.09472 0.00564021 0
1.09261 0.00574965 0
1.0905 0.00585045 0
1.08838 0.00595353 0
1.08625 0.00604883 0
1.08411 0.00614496 0
1.08196 0.00623434 0
1.0798 0.006323 0
1.07762 0.00640608 0
1.07543 0.00648676 0
1.07323 0.00656319 0
1.07101 0.00663542 0
1.06878 0.00670483 0
1.06653 0.00676816 0
1.06427 0.0068302 0
1.062 0.00688419 0
1.05971 0.00693851 0
1.05741 0.00698274 0
1.0551 0.00702898 0
1.05277 0.00706307 0
1.05044 0.0071009 0
1.0481 0.00712448 0
1.04576 0.00715357 0
1.04341 0.00716633 0
1.04105 0.00718636 0
1.0387 0.00718806 0
1.03634 0.00719874 0
1.03398 0.00718915 0
1.03163 0.00719022 0
1.02929 0.00716921 0
1.02695 0.00716042 0
1.02463 0.0071279 0
1.02232 0.00710906 0
1.02003 0.00706501 0
1.01776 0.00703591 0
1.01551 0.00698034 0
1.01328 0.0069408 0
1.01109 0.00687379 0
1.00892 0.00682364 0
1.0068 0.00674527 0
1.00472 0.00668431 0
1.00268 0.0065947 0
1.00068 0.00652275 0
0.998746 0.00642206 0
0.996865 0.006339 0
0.995048 0.00622757 0
0.993297 0.00613354 0
0.991621 0.00601218 0
0.990021 0.00590812 0
0.988506 0.00577906 0
0.987079 0.00566809 0
0.985749 0.0055374 0
0.984523 0.00542843 0
0.983419 0.0053123 0
0.982479 0.00522878 0
0.981827 0.00516886 0
0.959154 -0.000146067 0
0.924317 -0.000329901 0
0.894853 -0.000543028 0
0.870091 -0.000779236 0
0.849383 -0.00103271 0
0.832133 -0.00130048 0
0.817811 -0.0015787 0
0.805957 -0.00186689 0
0.796183 -0.00216233 0
0.78816 -0.00246631 0
0.781616 -0.00277657 0
0.776326 -0.00309557 0
0.772107 -0.00342111 0
0.76881 -0.00375642 0
0.766313 -0.00409903 0
0.764518 -0.00445267 0
0.763346 -0.00481445 0
0.762732 -0.00518838 0
0.762626 -0.00557104 0
0.762987 -0.00596658 0
0.763781 -0.00637095 0
0.764983 -0.00678829 0
0.766571 -0.00721393 0
0.76853 -0.00765187 0
0.770847 -0.00809673 0
0.773511 -0.00855231 0
0.776516 -0.00901251 0
0.779856 -0.00948079 0
0.783526 -0.00995036 0
0.787523 -0.0104243 0
0.791845 -0.010895 0
0.79649 -0.0113651 0
0.801456 -0.0118265 0
0.806741 -0.0122813 0
0.812344 -0.0127206 0
0.818263 -0.0131463 0
0.824495 -0.0135491 0
0.831036 -0.0139303 0
0.837884 -0.0142804 0
0.845032 -0.0146006 0
0.852475 -0.0148812 0
0.860205 -0.0151235 0
0.868215 -0.0153179 0
0.876494 -0.0154661 0
0.885032 -0.0155588 0
0.893817 -0.0155984 0
0.902834 -0.0155762 0
0.912069 -0.0154955 0
0.921505 -0.0153485 0
0.931126 -0.0151396 0
0.940911 -0.0148622 0
0.950842 -0.0145222 0
0.960898 -0.0141138 0
0.971057 -0.0136446 0
0.981296 -0.0131101 0
0.991593 -0.0125193 0
1.00192 -0.0118689 0
1.01226 -0.0111692 0
1.02259 -0.0104179 0
1.03288 -0.00962683 0
1.0431 -0.00879428 0
1.05324 -0.00793305 0
1.06327 -0.00704201 0
1.07316 -0.00613473 0
1.08289 -0.00521021 0
1.09244 -0.00428255 0
1.10178 -0.00335055 0
1.1109 -0.00242857 0
1.11978 -0.00151487 0
1.12839 -0.000623782 0
1.13671 0.000247223 0
1.14473 0.00108408 0
1.15243 0.00189038 0
1.15979 0.00265253 0
1.16681 0.00337537 0
1.17345 0.00404593 0
1.17972 0.00467047 0
1.1856 0.00523677 0
1.19108 0.00575258 0
1.19616 0.00620648 0
1.20082 0.0066078 0
1.20506 0.00694593 0
1.20888 0.00723174 0
1.21227 0.00745539 0
1.21524 0.00762926 0
1.21779 0.00774418 0
1.21992 0.00781392 0
1.22163 0.00782983 0
1.22294 0.00780692 0
1.22385 0.00773686 0
1.22437 0.00763572 0
1.22452 0.00749525 0
1.22431 0.00733235 0
1.22376 0.00713859 0
1.22287 0.00693146 0
1.22168 0.00670212 0
1.2202 0.00646839 0
1.21845 0.00622078 0
1.21646 0.00597722 0
1.21423 0.00572735 0
1.21181 0.00548907 0
1.2092 0.00525095 0
1.20644 0.00503076 0
1.20353 0.00481589 0
1.20051 0.00462391 0
1.1974 0.004441 0
1.19421 0.0042845 0
1.19096 0.0041394 0
1.18767 0.00402286 0
1.18435 0.00391874 0
1.18102 0.0038441 0
1.1777 0.00378174 0
1.17439 0.00374874 0
1.17111 0.00372696 0
1.16786 0.0037336 0
1.16466 0.00374969 0
1.1615 0.00379268 0
1.1584 0.0038429 0
1.15536 0.0039181 0
1.15237 0.00399806 0
1.14945 0.00410087 0
1.14659 0.00420587 0
1.1438 0.00433155 0
1.14107 0.00445692 0
1.1384 0.00460084 0
1.13579 0.00474211 0
1.13324 0.00489991 0
1.13074 0.00505296 0
1.12829 0.00522067 0
1.12589 0.00538182 0
1.12354 0.00555592 0
1.12122 0.00572196 0
1.11895 0.00589938 0
1.1167 0.00606757 0
1.11449 0.00624571 0
1.1123 0.00641374 0
1.11014 0.00659039 0
1.108 0.00675635 0
1.10587 0.00692967 0
1.10375 0.00709201 0
1.10164 0.00726045 0
1.09954 0.00741789 0
1.09745 0.00758017 0
1.09535 0.00773167 0
1.09325 0.00788669 0
1.09115 0.00803139 0
1.08905 0.00817822 0
1.08694 0.00831537 0
1.08482 0.00845319 0
1.08269 0.00858216 0
1.08055 0.0087102 0
1.07839 0.00883041 0
1.07623 0.00894799 0
1.07405 0.00905888 0
1.07186 0.00916535 0
1.06965 0.00926641 0
1.06744 0.00936112 0
1.0652 0.00945182 0
1.06296 0.00953418 0
1.0607 0.00961402 0
1.05843 0.00968343 0
1.05614 0.00975189 0
1.05385 0.00980781 0
1.05154 0.00986441 0
1.04923 0.00990631 0
1.04691 0.00995057 0
1.04458 0.00997798 0
1.04225 0.0100095 0
1.03992 0.010022 0
1.03758 0.0100403 0
1.03524 0.0100376 0
1.03291 0.0100423 0
1.03058 0.0100241 0
1.02826 0.0100149 0
1.02594 0.009981 0
1.02364 0.00995761 0
1.02135 0.00990796 0
1.01908 0.00987014 0
1.01683 0.00980467 0
1.0146 0.0097522 0
1.0124 0.00967092 0
1.01022 0.0096036 0
1.00808 0.00950658 0
1.00598 0.0094242 0
1.00391 0.00931151 0
1.00189 0.00921388 0
0.999922 0.00908565 0
0.998003 0.00897259 0
0.996142 0.00882906 0
0.994342 0.00870061 0
0.992611 0.00854242 0
0.99095 0.00839926 0
0.989368 0.0082282 0
0.987868 0.0080729 0
0.986458 0.00789401 0
0.985141 0.00773416 0
0.983929 0.00756112 0
0.982836 0.00741738 0
0.981907 0.0072861 0
0.981262 0.00721145 0
0.959099 -0.000187381 0
0.924219 -0.000423005 0
0.89472 -0.00069656 0
0.869932 -0.000999087 0
0.849202 -0.00132461 0
0.831935 -0.00166735 0
0.817599 -0.00202489 0
0.805734 -0.00239357 0
0.795949 -0.00277355 0
0.787916 -0.00316228 0
0.781362 -0.00356164 0
0.776062 -0.00396954 0
0.771834 -0.00438892 0
0.768527 -0.00481767 0
0.766019 -0.00525941 0
0.764213 -0.00571171 0
0.763028 -0.00617855 0
0.762403 -0.00665699 0
0.762285 -0.00715117 0
0.762633 -0.00765751 0
0.763415 -0.00818013 0
0.764605 -0.00871472 0
0.766181 -0.00926523 0
0.768129 -0.00982659 0
0.770435 -0.0104024 0
0.773091 -0.0109868 0
0.776088 -0.0115829 0
0.779421 -0.012184 0
0.783087 -0.0127927 0
0.787082 -0.0134014 0
0.791404 -0.0140121 0
0.796052 -0.0146163 0
0.801024 -0.0152154 0
0.806319 -0.0158001 0
0.811934 -0.0163711 0
0.817869 -0.0169185 0
0.824121 -0.0174424 0
0.830687 -0.0179324 0
0.837562 -0.0183884 0
0.844742 -0.0187995 0
0.852221 -0.0191655 0
0.859991 -0.0194757 0
0.868043 -0.0197301 0
0.876369 -0.0199181 0
0.884956 -0.0200406 0
0.893791 -0.0200876 0
0.902862 -0.0200609 0
0.912151 -0.0199516 0
0.921642 -0.0197629 0
0.931318 -0.0194873 0
0.941157 -0.0191295 0
0.951142 -0.0186835 0
0.961248 -0.018156 0
0.971455 -0.0175426 0
0.981739 -0.0168519 0
0.992076 -0.0160811 0
1.00244 -0.0152406 0
1.01281 -0.0143292 0
1.02316 -0.0133591 0
1.03347 -0.01233 0
1.0437 -0.0112556 0
1.05385 -0.0101367 0
1.06387 -0.00898804 0
1.07375 -0.00781068 0
1.08346 -0.0066203 0
1.09298 -0.00541791 0
1.1023 -0.00421958 0
1.11138 -0.00302592 0
1.12021 -0.00185299 0
1.12876 -0.000700631 0
1.13702 0.000415439 0
1.14498 0.00149649 0
1.1526 0.00252746 0
1.15989 0.003511 0
1.16682 0.00443291 0
1.17338 0.00529748 0
1.17956 0.00609155 0
1.18535 0.00682117 0
1.19074 0.00747433 0
1.19572 0.00805895 0
1.20028 0.0085642 0
1.20443 0.00899988 0
1.20815 0.00935632 0
1.21145 0.00964515 0
1.21433 0.00985775 0
1.21679 0.0100075 0
1.21883 0.0100866 0
1.22046 0.01011 0
1.22169 0.0100707 0
1.22252 0.00998475 0
1.22298 0.00984559 0
1.22306 0.00967042 0
1.22278 0.00945265 0
1.22217 0.00921024 0
1.22124 0.00893633 0
1.22 0.00864933 0
1.21847 0.00834177 0
1.21669 0.00803224 0
1.21465 0.00771238 0
1.2124 0.00740069 0
1.20995 0.00708767 0
1.20732 0.00679159 0
1.20454 0.00650163 0
1.20162 0.00623571 0
1.19859 0.00598159 0
1.19546 0.00575681 0
1.19226 0.0055477 0
1.189 0.00537144 0
1.18571 0.00521295 0
1.18239 0.00508918 0
1.17906 0.00498373 0
1.17573 0.0049134 0
1.17242 0.00486063 0
1.16914 0.00484223 0
1.16589 0.00483958 0
1.16268 0.00486967 0
1.15952 0.00491298 0
1.15642 0.00498677 0
1.15337 0.00507079 0
1.15039 0.0051827 0
1.14746 0.00530163 0
1.1446 0.00544568 0
1.14181 0.00559355 0
1.13907 0.00576378 0
1.1364 0.00593474 0
1.13379 0.00612542 0