# vtk DataFile Version 3.0
Flow field at step 950
ASCII
DATASET STRUCTURED_GRID
DIMENSIONS 200 100 1
POINTS 20000 float
0.005 0.005 0
0.015 0.005 0
0.025 0.005 0
0.035 0.005 0
0.045 0.005 0
0.055 0.005 0
0.065 0.005 0
0.075 0.005 0
0.085 0.005 0
0.095 0.005 0
0.105 0.005 0
0.115 0.005 0
0.125 0.005 0
0.135 0.005 0
0.145 0.005 0
0.155 0.005 0
0.165 0.005 0
0.175 0.005 0
0.185 0.005 0
0.195 0.005 0
0.205 0.005 0
0.215 0.005 0
0.225 0.005 0
0.235 0.005 0
0.245 0.005 0
0.255 0.005 0
0.265 0.005 0
0.275 0.005 0
0.285 0.005 0
0.295 0.005 0
0.305 0.005 0
0.315 0.005 0
0.325 0.005 0
0.335 0.005 0
0.345 0.005 0
0.355 0.005 0
0.365 0.005 0
0.375 0.005 0
0.385 0.005 0
0.395 0.005 0
0.405 0.005 0
0.415 0.005 0
0.425 0.005 0
0.435 0.005 0
0.445 0.005 0
0.455 0.005 0
0.465 0.005 0
0.475 0.005 0
0.485 0.005 0
0.495 0.005 0
0.505 0.005 0
0.515 0.005 0
0.525 0.005 0
0.535 0.005 0
0.545 0.005 0
0.555 0.005 0
0.565 0.005 0
0.575 0.005 0
0.585 0.005 0
0.595 0.005 0
0.605 0.005 0
0.615 0.005 0
0.625 0.005 0
0.635 0.005 0
0.645 0.005 0
0.655 0.005 0
0.665 0.005 0
0.675 0.005 0
0.685 0.005 0
0.695 0.005 0
0.705 0.005 0
0.715 0.005 0
0.725 0.005 0
0.735 0.005 0
0.745 0.005 0
0.755 0.005 0
0.765 0.005 0
0.775 0.005 0
0.785 0.005 0
0.795 0.005 0
0.805 0.005 0
0.815 0.005 0
0.825 0.005 0
0.835 0.005 0
0.845 0.005 0
0.855 0.005 0
0.865 0.005 0
0.875 0.005 0
0.885 0.005 0
0.895 0.005 0
0.905 0.005 0
0.915 0.005 0
0.925 0.005 0
0.935 0.005 0
0.945 0.005 0
0.955 0.005 0
0.965 0.005 0
0.975 0.005 0
0.985 0.005 0
0.995 0.005 0
1.005 0.005 0
1.015 0.005 0
1.025 0.005 0
1.035 0.005 0
1.045 0.005 0
1.055 0.005 0
1.065 0.005 0
1.075 0.005 0
1.085 0.005 0
1.095 0.005 0
1.105 0.005 0
1.115 0.005 0
1.125 0.005 0
1.135 0.005 0
1.145 0.005 0
1.155 0.005 0
1.165 0.005 0
1.175 0.005 0
1.185 0.005 0
1.195 0.005 0
1.205 0.005 0
1.215 0.005 0
1.225 0.005 0
1.235 0.005 0
1.245 0.005 0
1.255 0.005 0
1.265 0.005 0
1.275 0.005 0
1.285 0.005 0
1.295 0.005 0
1.305 0.005 0
1.315 0.005 0
1.325 0.005 0
1.335 0.005 0
1.345 0.005 0
1.355 0.005 0
1.365 0.005 0
1.375 0.005 0
1.385 0.005 0
1.395 0.005 0
1.405 0.005 0
1.415 0.005 0
1.425 0.005 0
1.435 0.005 0
1.445 0.005 0
1.455 0.005 0
1.465 0.005 0
1.475 0.005 0
1.485 0.005 0
1.495 0.005 0
1.505 0.005 0
1.515 0.005 0
1.525 0.005 0
1.535 0.005 0
1.545 0.005 0
1.555 0.005 0
1.565 0.005 0
1.575 0.005 0
1.585 0.005 0
1.595 0.005 0
1.605 0.005 0
1.615 0.005 0
1.625 0.005 0
1.635 0.005 0
1.645 0.005 0
1.655 0.005 0
1.665 0.005 0
1.675 0.005 0
1.685 0.005 0
1.695 0.005 0
1.705 0.005 0
1.715 0.005 0
1.725 0.005 0
1.735 0.005 0
1.745 0.005 0
1.755 0.005 0
1.765 0.005 0
1.775 0.005 0
1.785 0.005 0
1.795 0.005 0
1.805 0.005 0
1.815 0.005 0
1.825 0.005 0
1.835 0.005 0
1.845 0.005 0
1.855 0.005 0
1.865 0.005 0
1.875 0.005 0
1.885 0.005 0
1.895 0.005 0
1.905 0.005 0
1.915 0.005 0
1.925 0.005 0
1.935 0.005 0
1.945 0.005 0
1.955 0.005 0
1.965 0.005 0
1.975 0.005 0
1.985 0.005 0
1.995 0.005 0
0.005 0.015 0
0.015 0.015 0
0.025 0.015 0
0.035 0.015 0
0.045 0.015 0
0.055 0.015 0
0.065 0.015 0
0.075 0.015 0
0.085 0.015 0
0.095 0.015 0
0.105 0.015 0
0.115 0.015 0
0.125 0.015 0
0.135 0.015 0
0.145 0.015 0
0.155 0.015 0
0.165 0.015 0
0.175 0.015 0
0.185 0.015 0
0.195 0.015 0
0.205 0.015 0
0.215 0.015 0
0.225 0.015 0
0.235 0.015 0
0.245 0.015 0
0.255 0.015 0
0.265 0.015 0
0.275 0.015 0
0.285 0.015 0
0.295 0.015 0
0.305 0.015 0
0.315 0.015 0
0.325 0.015 0
0.335 0.015 0
0.345 0.015 0
0.355 0.015 0
0.365 0.015 0
0.375 0.015 0
0.385 0.015 0
0.395 0.015 0
0.405 0.015 0
0.415 0.015 0
0.425 0.015 0
0.435 0.015 0
0.445 0.015 0
0.455 0.015 0
0.465 0.015 0
0.475 0.015 0
0.485 0.015 0
0.495 0.015 0
0.505 0.015 0
0.515 0.015 0
0.525 0.015 0
0.535 0.015 0
0.545 0.015 0
0.555 0.015 0
0.565 0.015 0
0.575 0.015 0
0.585 0.015 0
0.595 0.015 0
0.605 0.015 0
0.615 0.015 0
0.625 0.015 0
0.635 0.015 0
0.645 0.015 0
0.655 0.015 0
0.665 0.015 0
0.675 0.015 0
0.685 0.015 0
0.695 0.015 0
0.705 0.015 0
0.715 0.015 0
0.725 0.015 0
0.735 0.015 0
0.745 0.015 0
0.755 0.015 0
0.765 0.015 0
0.775 0.015 0
0.785 0.015 0
0.795 0.015 0
0.805 0.015 0
0.815 0.015 0
0.825 0.015 0
0.835 0.015 0
0.845 0.015 0
0.855 0.015 0
0.865 0.015 0
0.875 0.015 0
0.885 0.015 0
0.895 0.015 0
0.905 0.015 0
0.915 0.015 0
0.925 0.015 0
0.935 0.015 0
0.945 0.015 0
0.955 0.015 0
0.965 0.015 0
0.975 0.015 0
0.985 0.015 0
0.995 0.015 0
1.005 0.015 0
1.015 0.015 0
1.025 0.015 0
1.035 0.015 0
1.045 0.015 0
1.055 0.015 0
1.065 0.015 0
1.075 0.015 0
1.085 0.015 0
1.095 0.015 0
1.105 0.015 0
1.115 0.015 0
1.125 0.015 0
1.135 0.015 0
1.145 0.015 0
1.155 0.015 0
1.165 0.015 0
1.175 0.015 0
1.185 0.015 0
1.195 0.015 0
1.205 0.015 0
1.215 0.015 0
1.225 0.015 0
1.235 0.015 0
1.245 0.015 0
1.255 0.015 0
1.265 0.015 0
1.275 0.015 0
1.285 0.015 0
1.295 0.015 0
1.305 0.015 0
1.315 0.015 0
1.325 0.015 0
1.335 0.015 0
1.345 0.015 0
1.355 0.015 0
1.365 0.015 0
1.375 0.015 0
1.385 0.015 0
1.395 0.015 0
1.405 0.015 0
1.415 0.015 0
1.425 0.015 0
1.435 0.015 0
1.445 0.015 0
1.455 0.015 0
1.465 0.015 0
1.475 0.015 0
1.485 0.015 0
1.495 0.015 0
1.505 0.015 0
1.515 0.015 0
1.525 0.015 0
1.535 0.015 0
1.545 0.015 0
1.555 0.015 0
1.565 0.015 0
1.575 0.015 0
1.585 0.015 0
1.595 0.015 0
1.605 0.015 0
1.615 0.015 0
1.625 0.015 0
1.635 0.015 0
1.645 0.015 0
1.655 0.015 0
1.665 0.015 0
1.675 0.015 0
1.685 0.015 0
1.695 0.015 0
1.705 0.015 0
1.715 0.015 0
1.725 0.015 0
1.735 0.015 0
1.745 0.015 0
1.755 0.015 0
1.765 0.015 0
1.775 0.015 0
1.785 0.015 0
1.795 0.015 0
1.805 0.015 0
1.815 0.015 0
1.825 0.015 0
1.835 0.015 0
1.845 0.015 0
1.855 0.015 0
1.865 0.015 0
1.875 0.015 0
1.885 0.015 0
1.895 0.015 0
1.905 0.015 0
1.915 0.015 0
1.925 0.015 0
1.935 0.015 0
1.945 0.015 0
1.955 0.015 0
1.965 0.015 0
1.975 0.015 0
1.985 0.015 0
1.995 0.015 0
0.005 0.025 0
0.015 0.025 0
0.025 0.025 0
0.035 0.025 0
0.045 0.025 0
0.055 0.025 0
0.065 0.025 0
0.075 0.025 0
0.085 0.025 0
0.095 0.025 0
0.105 0.025 0
0.115 0.025 0
0.125 0.025 0
0.135 0.025 0
0.145 0.025 0
0.155 0.025 0
0.165 0.025 0
0.175 0.025 0
0.185 0.025 0
0.195 0.025 0
0.205 0.025 0
0.215 0.025 0
0.225 0.025 0
0.235 0.025 0
0.245 0.025 0
0.255 0.025 0
0.265 0.025 0
0.275 0.025 0
0.285 0.025 0
0.295 0.025 0
0.305 0.025 0
0.315 0.025 0
0.325 0.025 0
0.335 0.025 0
0.345 0.025 0
0.355 0.025 0
0.365 0.025 0
0.375 0.025 0
0.385 0.025 0
0.395 0.025 0
0.405 0.025 0
0.415 0.025 0
0.425 0.025 0
0.435 0.025 0
0.445 0.025 0
0.455 0.025 0
0.465 0.025 0
0.475 0.025 0
0.485 0.025 0
0.495 0.025 0
0.505 0.025 0
0.515 0.025 0
0.525 0.025 0
0.535 0.025 0
0.545 0.025 0
0.555 0.025 0
0.565 0.025 0
0.575 0.025 0
0.585 0.025 0
0.595 0.025 0
0.605 0.025 0
0.615 0.025 0
0.625 0.025 0
0.635 0.025 0
0.645 0.025 0
0.655 0.025 0
0.665 0.025 0
0.675 0.025 0
0.685 0.025 0
0.695 0.025 0
0.705 0.025 0
0.715 0.025 0
0.725 0.025 0
0.735 0.025 0
0.745 0.025 0
0.755 0.025 0
0.765 0.025 0
0.775 0.025 0
0.785 0.025 0
0.795 0.025 0
0.805 0.025 0
0.815 0.025 0
0.825 0.025 0
0.835 0.025 0
0.845 0.025 0
0.855 0.025 0
0.865 0.025 0
0.875 0.025 0
0.885 0.025 0
0.895 0.025 0
0.905 0.025 0
0.915 0.025 0
0.925 0.025 0
0.935 0.025 0
0.945 0.025 0
0.955 0.025 0
0.965 0.025 0
0.975 0.025 0
0.985 0.025 0
0.995 0.025 0
1.005 0.025 0
1.015 0.025 0
1.025 0.025 0
1.035 0.025 0
1.045 0.025 0
1.055 0.025 0
1.065 0.025 0
1.075 0.025 0
1.085 0.025 0
1.095 0.025 0
1.105 0.025 0
1.115 0.025 0
1.125 0.025 0
1.135 0.025 0
1.145 0.025 0
1.155 0.025 0
1.165 0.025 0
1.175 0.025 0
1.185 0.025 0
1.195 0.025 0
1.205 0.025 0
1.215 0.025 0
1.225 0.025 0
1.235 0.025 0
1.245 0.025 0
1.255 0.025 0
1.265 0.025 0
1.275 0.025 0
1.285 0.025 0
1.295 0.025 0
1.305 0.025 0
1.315 0.025 0
1.325 0.025 0
1.335 0.025 0
1.345 0.025 0
1.355 0.025 0
1.365 0.025 0
1.375 0.025 0
1.385 0.025 0
1.395 0.025 0
1.405 0.025 0
1.415 0.025 0
1.425 0.025 0
1.435 0.025 0
1.445 0.025 0
1.455 0.025 0
1.465 0.025 0
1.475 0.025 0
1.485 0.025 0
1.495 0.025 0
1.505 0.025 0
1.515 0.025 0
1.525 0.025 0
1.535 0.025 0
1.545 0.025 0
1.555 0.025 0
1.565 0.025 0
1.575 0.025 0
1.585 0.025 0
1.595 0.025 0
1.605 0.025 0
1.615 0.025 0
1.625 0.025 0
1.635 0.025 0
1.645 0.025 0
1.655 0.025 0
1.665 0.025 0
1.675 0.025 0
1.685 0.025 0
1.695 0.025 0
1.705 0.025 0
1.715 0.025 0
1.725 0.025 0
1.735 0.025 0
1.745 0.025 0
1.755 0.025 0
1.765 0.025 0
1.775 0.025 0
1.785 0.025 0
1.795 0.025 0
1.805 0.025 0
1.815 0.025 0
1.825 0.025 0
1.835 0.025 0
1.845 0.025 0
1.855 0.025 0
1.865 0.025 0
1.875 0.025 0
1.885 0.025 0
1.895 0.025 0
1.905 0.025 0
1.915 0.025 0
1.925 0.025 0
1.935 0.025 0
1.945 0.025 0
1.955 0.025 0
1.965 0.025 0
1.975 0.025 0
1.985 0.025 0
1.995 0.025 0
0.005 0.035 0
0.015 0.035 0
0.025 0.035 0
0.035 0.035 0
0.045 0.035 0
0.055 0.035 0
0.065 0.035 0
0.075 0.035 0
0.085 0.035 0
0.095 0.035 0
0.105 0.035 0
0.115 0.035 0
0.125 0.035 0
0.135 0.035 0
0.145 0.035 0
0.155 0.035 0
0.165 0.035 0
0.175 0.035 0
0.185 0.035 0
0.195 0.035 0
0.205 0.035 0
0.215 0.035 0
0.225 0.035 0
0.235 0.035 0
0.245 0.035 0
0.255 0.035 0
0.265 0.035 0
0.275 0.035 0
0.285 0.035 0
0.295 0.035 0
0.305 0.035 0
0.315 0.035 0
0.325 0.035 0
0.335 0.035 0
0.345 0.035 0
0.355 0.035 0
0.365 0.035 0
0.375 0.035 0
0.385 0.035 0
0.395 0.035 0
0.405 0.035 0
0.415 0.035 0
0.425 0.035 0
0.435 0.035 0
0.445 0.035 0
0.455 0.035 0
0.465 0.035 0
0.475 0.035 0
0.485 0.035 0
0.495 0.035 0
0.505 0.035 0
0.515 0.035 0
0.525 0.035 0
0.535 0.035 0
0.545 0.035 0
0.555 0.035 0
0.565 0.035 0
0.575 0.035 0
0.585 0.035 0
0.595 0.035 0
0.605 0.035 0
0.615 0.035 0
0.625 0.035 0
0.635 0.035 0
0.645 0.035 0
0.655 0.035 0
0.665 0.035 0
0.675 0.035 0
0.685 0.035 0
0.695 0.035 0
0.705 0.035 0
0.715 0.035 0
0.725 0.035 0
0.735 0.035 0
0.745 0.035 0
0.755 0.035 0
0.765 0.035 0
0.775 0.035 0
0.785 0.035 0
0.795 0.035 0
0.805 0.035 0
0.815 0.035 0
0.825 0.035 0
0.835 0.035 0
0.845 0.035 0
0.855 0.035 0
0.865 0.035 0
0.875 0.035 0
0.885 0.035 0
0.895 0.035 0
0.905 0.035 0
0.915 0.035 0
0.925 0.035 0
0.935 0.035 0
0.945 0.035 0
0.955 0.035 0
0.965 0.035 0
0.975 0.035 0
0.985 0.035 0
0.995 0.035 0
1.005 0.035 0
1.015 0.035 0
1.025 0.035 0
1.035 0.035 0
1.045 0.035 0
[...]
POINT_DATA 20000
VECTORS velocity float
0.971904 -2.11986e-05 0
0.947233 -4.86825e-05 0
0.925564 -8.07459e-05 0
0.906504 -0.000117621 0
0.889702 -0.000156711 0
0.874853 -0.000199751 0
0.861695 -0.000243061 0
0.85001 -0.000289998 0
0.839617 -0.000335707 0
0.830367 -0.000385127 0
0.822139 -0.000432228 0
0.814834 -0.000483385 0
0.808374 -0.000531483 0
0.802693 -0.000584111 0
0.797739 -0.00063322 0
0.793468 -0.000687348 0
0.789845 -0.000737712 0
0.786838 -0.000793511 0
0.784423 -0.000845455 0
0.782577 -0.000903109 0
0.78128 -0.000956912 0
0.780514 -0.00101651 0
0.780264 -0.00107231 0
0.780516 -0.00113377 0
0.781256 -0.00119149 0
0.782472 -0.00125448 0
0.784153 -0.00131375 0
0.786288 -0.00137766 0
0.788868 -0.00143782 0
0.791882 -0.00150172 0
0.795323 -0.00156173 0
0.799182 -0.00162435 0
0.80345 -0.00168286 0
0.808119 -0.0017426 0
0.81318 -0.0017979 0
0.818626 -0.00185288 0
0.824448 -0.00190299 0
0.830636 -0.00195108 0
0.837182 -0.00199381 0
0.844076 -0.00203272 0
0.851306 -0.00206576 0
0.858862 -0.00209317 0
0.866731 -0.00211424 0
0.8749 -0.00212792 0
0.883355 -0.0021349 0
0.892082 -0.00213288 0
0.901063 -0.00212398 0
0.910283 -0.00210467 0
0.919723 -0.00207858 0
0.929364 -0.00204094 0
0.939186 -0.00199693 0
0.94917 -0.00194056 0
0.959292 -0.00187861 0
0.969531 -0.00180386 0
0.979865 -0.0017247 0
0.990269 -0.00163262 0
1.00072 -0.00153773 0
1.01119 -0.00143013 0
1.02167 -0.00132167 0
1.03211 -0.00120099 0
1.04251 -0.00108174 0
1.05283 -0.000950952 0
1.06305 -0.000824171 0
1.07315 -0.00068663 0
1.0831 -0.000555887 0
1.09288 -0.000415178 0
1.10247 -0.000284202 0
1.11185 -0.000143967 0
1.12098 -1.64754e-05 0
1.12986 0.000119747 0
1.13847 0.000240207 0
1.14677 0.000369133 0
1.15476 0.000479321 0
1.16243 0.000598053 0
1.16974 0.000695162 0
1.17669 0.000801294 0
1.18326 0.000883047 0
1.18945 0.00097475 0
1.19523 0.00103948 0
1.2006 0.00111556 0
1.20556 0.00116224 0
1.21009 0.00122217 0
1.21418 0.00125046 0
1.21784 0.00129439 0
1.22106 0.00130461 0
1.22385 0.00133332 0
1.2262 0.00132645 0
1.22811 0.00134133 0
1.2296 0.00131889 0
1.23067 0.00132183 0
1.23132 0.00128585 0
1.23158 0.00127913 0
1.23144 0.001232 0
1.23093 0.00121819 0
1.23007 0.00116253 0
1.22886 0.00114431 0
1.22732 0.00108285 0
1.22548 0.00106288 0
1.22336 0.000998272 0
1.22097 0.000979057 0
1.21834 0.000913803 0
1.21549 0.000897565 0
1.21244 0.000833858 0
1.20922 0.000822448 0
1.20583 0.000762121 0
1.20231 0.000756957 0
1.19867 0.00070143 0
1.19493 0.000703478 0
1.19111 0.000653749 0
1.18722 0.000663531 0
1.18328 0.000620192 0
1.17931 0.000637823 0
1.17531 0.000601103 0
1.1713 0.000626346 0
1.16728 0.000596166 0
1.16327 0.000628498 0
1.15927 0.000604534 0
1.15529 0.000643214 0
1.15133 0.000624962 0
1.1474 0.0006691 0
1.1435 0.00065593 0
1.13963 0.000704547 0
1.1358 0.000695756 0
1.132 0.000747831 0
1.12824 0.000742686 0
1.12451 0.000797198 0
1.12081 0.000794964 0
1.11715 0.000850923 0
1.11352 0.000850883 0
1.10992 0.000907354 0
1.10634 0.000908828 0
1.1028 0.000964941 0
1.09928 0.000967292 0
1.09579 0.00102226 0
1.09232 0.00102489 0
1.08888 0.00107801 0
1.08545 0.00108039 0
1.08205 0.00113103 0
1.07866 0.00113266 0
1.0753 0.0011803 0
1.07195 0.00118073 0
1.06862 0.00122493 0
1.06531 0.00122376 0
1.06202 0.00126417 0
1.05875 0.00126104 0
1.05549 0.0012974 0
1.05226 0.001292 0
1.04905 0.00132413 0
1.04587 0.00131618 0
1.04271 0.001344 0
1.03957 0.00133329 0
1.03646 0.00135677 0
1.03339 0.00134312 0
1.03034 0.00136234 0
1.02732 0.00134562 0
1.02434 0.00136071 0
1.0214 0.00134085 0
1.01849 0.00135199 0
1.01563 0.00132897 0
1.01281 0.00133642 0
1.01003 0.00131026 0
1.0073 0.00131432 0
1.00462 0.00128508 0
1.00199 0.00128608 0
0.999405 0.0012539 0
0.996877 0.00125218 0
0.994405 0.00121722 0
0.991988 0.00121316 0
0.98963 0.00117561 0
0.98733 0.00116959 0
0.985089 0.00112969 0
0.982909 0.00112207 0
0.980791 0.00108009 0
0.978734 0.00107122 0
0.97674 0.00102745 0
0.974808 0.00101765 0
0.972938 0.00097238 0
0.971131 0.000961957 0
0.969387 0.000915501 0
0.967705 0.000904712 0
0.966084 0.000857384 0
0.964525 0.000846446 0
0.963027 0.000798553 0
0.961588 0.000787643 0
0.96021 0.000739484 0
0.95889 0.000728731 0
0.95763 0.000680595 0
0.956428 0.000670087 0
0.955284 0.000622257 0
0.954198 0.00061205 0
0.953171 0.000564849 0
0.952203 0.000554989 0
0.951295 0.00050891 0
0.950448 0.000499491 0
0.949664 0.000455571 0
0.948943 0.000446873 0
0.948291 0.000407677 0
0.947714 0.000400503 0
0.947232 0.000372616 0
0.946905 0.000369101 0
0.971891 -6.37463e-05 0
0.947209 -0.000145518 0
0.92553 -0.0002428 0
0.906463 -0.000351588 0
0.889656 -0.000471194 0
0.874802 -0.000597122 0
0.861641 -0.000730769 0
0.849954 -0.000866984 0
0.839559 -0.00100922 0
0.830308 -0.00115153 0
0.822079 -0.00129925 0
0.814773 -0.00144558 0
0.808312 -0.00159741 0
0.80263 -0.00174716 0
0.797675 -0.00190295 0
0.793403 -0.00205645 0
0.789778 -0.00221667 0
0.78677 -0.00237471 0
0.784353 -0.00254008 0
0.782504 -0.00270347 0
0.781205 -0.00287456 0
0.780436 -0.00304384 0
0.780184 -0.00322083 0
0.780433 -0.00339597 0
0.781171 -0.00357838 0
0.782385 -0.00375865 0
0.784063 -0.00394519 0
0.786197 -0.00412895 0
0.788775 -0.00431739 0
0.791789 -0.004502 0
0.79523 -0.00468913 0
0.799089 -0.00487093 0
0.803358 -0.00505251 0
0.808028 -0.00522681 0
0.813092 -0.00539763 0
0.818541 -0.00555883 0
0.824368 -0.00571285 0
0.830561 -0.00585461 0
0.837114 -0.00598518 0
0.844014 -0.00610066 0
0.851253 -0.0062008 0
0.858817 -0.00628303 0
0.866696 -0.00634586 0
0.874876 -0.00638815 0
0.883343 -0.00640727 0
0.892081 -0.00640368 0
0.901075 -0.00637369 0
0.910307 -0.00631947 0
0.91976 -0.00623638 0
0.929414 -0.00612842 0
0.93925 -0.00599006 0
0.949245 -0.00582722 0
0.95938 -0.0056335 0
0.969631 -0.00541681 0
0.979975 -0.0051699 0
0.990389 -0.00490268 0
1.00085 -0.00460696 0
1.01133 -0.00429471 0
1.02181 -0.00395665 0
1.03226 -0.00360683 0
1.04266 -0.00323469 0
1.05298 -0.00285638 0
1.0632 -0.00245984 0
1.0733 -0.0020633 0
1.08324 -0.00165293 0
1.09302 -0.00124913 0
1.1026 -0.000835964 0
1.11196 -0.000436043 0
1.12109 -3.10395e-05 0
1.12995 0.000354143 0
1.13854 0.000740574 0
1.14683 0.00110091 0
1.15481 0.00145932 0
1.16245 0.00178585 0
1.16974 0.00210812 0
1.17667 0.00239335 0
1.18322 0.00267297 0
1.18938 0.00291114 0
1.19514 0.00314343 0
1.20049 0.00333067 0
1.20542 0.00351294 0
1.20992 0.0036474 0
1.214 0.00377895 0
1.21763 0.0038608 0
1.22083 0.00394293 0
1.22359 0.0039743 0
1.22592 0.00401021 0
1.22781 0.00399502 0
1.22928 0.00398955 0
1.23033 0.00393331 0
1.23096 0.00389272 0
1.2312 0.00380216 0
1.23105 0.00373372 0
1.23052 0.00361646 0
1.22964 0.00352807 0
1.22842 0.00339216 0
1.22688 0.00329193 0
1.22503 0.00314544 0
1.2229 0.0030412 0
1.2205 0.0028918 0
1.21787 0.00279076 0
1.21501 0.00264537 0
1.21196 0.0025538 0
1.20873 0.00241828 0
1.20534 0.00234127 0
1.20181 0.00222027 0
1.19817 0.00216161 0
1.19443 0.0020585 0
1.19061 0.00202064 0
1.18673 0.00193751 0
1.18279 0.00192167 0
1.17882 0.00185942 0
1.17482 0.00186569 0
1.17081 0.00182422 0
1.1668 0.00185173 0
1.16279 0.00183011 0
1.15879 0.00187726 0
1.15481 0.0018739 0
1.15086 0.00193854 0
1.14693 0.00195141 0
1.14303 0.00203104 0
1.13917 0.00205782 0
1.13534 0.00214974 0
1.13154 0.00218796 0
1.12778 0.00228939 0
1.12405 0.00233658 0
1.12036 0.00244477 0
1.1167 0.00249849 0
1.11307 0.0026108 0
1.10948 0.00266871 0
1.10591 0.00278267 0
1.10237 0.00284259 0
1.09886 0.0029559 0
1.09537 0.00301583 0
1.0919 0.00312639 0
1.08846 0.00318449 0
1.08504 0.00329046 0
1.08164 0.00334507 0
1.07826 0.0034448 0
1.0749 0.00349446 0
1.07156 0.00358654 0
1.06823 0.00362996 0
1.06493 0.00371321 0
1.06164 0.00374928 0
1.05838 0.00382271 0
1.05513 0.0038505 0
1.05191 0.00391338 0
1.0487 0.00393213 0
1.04552 0.00398392 0
1.04237 0.00399306 0
1.03924 0.00403343 0
1.03614 0.00403253 0
1.03307 0.00406137 0
1.03003 0.00405021 0
1.02702 0.00406758 0
1.02405 0.00404609 0
1.02111 0.00405225 0
1.01821 0.00402051 0
1.01536 0.00401588 0
1.01254 0.00397415 0
1.00977 0.0039593 0
1.00705 0.00390797 0
1.00437 0.00388361 0
1.00175 0.0038232 0
0.999176 0.00379013 0
0.996656 0.00372129 0
0.99419 0.00368039 0
0.991781 0.00360384 0
0.989429 0.00355607 0
0.987136 0.00347264 0
0.984902 0.00341896 0
0.982729 0.00332951 0
0.980617 0.00327091 0
0.978567 0.00317633 0
0.976578 0.00311379 0
0.974652 0.003015 0
0.972788 0.00294943 0
0.970988 0.00284734 0
0.969248 0.00277961 0
0.967572 0.0026751 0
0.965956 0.00260599 0
0.964402 0.00249991 0
0.962908 0.00243013 0
0.961475 0.00232325 0
0.9601 0.00225341 0
0.958786 0.00214644 0
0.957529 0.00207704 0
0.956331 0.00197065 0
0.95519 0.00190211 0
0.954109 0.00179693 0
0.953085 0.00172967 0
0.95212 0.00162652 0
0.951215 0.00156114 0
0.950371 0.00146149 0
0.949588 0.00139936 0
0.948871 0.00130672 0
0.94822 0.00125136 0
0.947645 0.00117472 0
0.947164 0.00113535 0
0.946838 0.00109783 0
0.971864 -0.000105982 0
0.947159 -0.000242503 0
0.925463 -0.000403654 0
0.906382 -0.000585886 0
0.889564 -0.000783353 0
0.874702 -0.000995001 0
0.861535 -0.00121492 0
0.849843 -0.00144464 0
0.839445 -0.00167796 0
0.83019 -0.00191875 0
0.821959 -0.00216037 0
0.814652 -0.00240871 0
0.808188 -0.00265652 0
0.802504 -0.00291129 0
0.797547 -0.00316516 0
0.793272 -0.00342678 0
0.789644 -0.00368771 0
0.786632 -0.00395731 0
0.784211 -0.00422668 0
0.782358 -0.00450548 0
0.781054 -0.00478443 0
0.780281 -0.00507315 0
0.780023 -0.00536215 0
0.780268 -0.00566063 0
0.781 -0.00595903 0
0.78221 -0.00626587 0
0.783884 -0.00657168 0
0.786014 -0.00688401 0
0.78859 -0.00719365 0
0.791602 -0.00750696 0
0.795042 -0.00781514 0
0.798901 -0.00812321 0
0.803172 -0.00842293 0
0.807846 -0.00871785 0
0.812915 -0.00900043 0
0.818371 -0.00927275 0
0.824206 -0.00952812 0
0.83041 -0.00976715 0
0.836975 -0.00998418 0
0.84389 -0.0101784 0
0.851145 -0.0103454 0
0.858728 -0.0104832 0
0.866626 -0.0105886 0
0.874827 -0.0106586 0
0.883317 -0.0106917 0
0.892079 -0.0106839 0
0.901098 -0.0106357 0
0.910356 -0.0105422 0
0.919835 -0.0104059 0
0.929515 -0.0102215 0
0.939376 -0.00999362 0
0.949397 -0.00971638 0
0.959555 -0.00939678 0
0.969829 -0.00902849 0
0.980194 -0.00862089 0
0.990627 -0.00816713 0
1.0011 -0.00767899 0
1.0116 -0.00714899 0
1.02209 -0.00659131 0
1.03255 -0.00599757 0
1.04295 -0.00538432 0
1.05327 -0.00474204 0
1.06349 -0.00408955 0
1.07358 -0.00341587 0
1.08352 -0.00274203 0
1.09328 -0.00205519 0
1.10284 -0.00137859 0
1.11219 -0.000697136 0
1.12129 -3.62385e-05 0
1.13013 0.000621857 0
1.13869 0.00124951 0
1.14694 0.00186757 0
1.15488 0.00244607 0
1.16248 0.00300936 0
1.16974 0.00352503 0
1.17662 0.00402133 0
1.18313 0.0044632 0
1.18924 0.00488319 0
1.19496 0.00524338 0
1.20026 0.00558095 0
1.20514 0.00585484 0
1.20959 0.00610723 0
1.21362 0.0062936 0
1.21721 0.00646141 0
1.22036 0.00656236 0
1.22307 0.00664943 0
1.22535 0.00667021 0
1.22721 0.00668334 0
1.22863 0.00663197 0
1.22964 0.00658052 0
1.23024 0.00646736 0
1.23044 0.0063627 0
1.23026 0.00619983 0
1.2297 0.00605469 0
1.22879 0.00585526 0
1.22755 0.00568302 0
1.22598 0.0054605 0
1.22411 0.0052745 0
1.22196 0.00504201 0
1.21955 0.00485483 0
1.2169 0.00462446 0
1.21404 0.00444735 0
1.21098 0.00422966 0
1.20774 0.0040721 0
1.20435 0.00387574 0
1.20083 0.00374513 0
1.19718 0.00357664 0
1.19344 0.00347821 0
1.18962 0.00334198 0
1.18574 0.0032788 0
1.1818 0.00317717 0
1.17784 0.00315035 0
1.17384 0.00308385 0
1.16984 0.00309279 0
1.16583 0.00306038 0
1.16182 0.00310311 0
1.15783 0.00310255 0
1.15386 0.00317602 0
1.14991 0.00320417 0
1.14599 0.0033046 0
1.1421 0.00335772 0
1.13824 0.00348084 0
1.13441 0.00355486 0
1.13062 0.00369622 0
1.12687 0.00378691 0
1.12315 0.00394201 0
1.11946 0.00404519 0
1.11581 0.00420964 0
1.11218 0.00432127 0
1.1086 0.00449089 0
1.10503 0.00460715 0
1.1015 0.00477805 0
1.098 0.00489539 0
1.09452 0.005064 0
1.09106 0.00517918 0
1.08763 0.00534226 0
1.08422 0.00545234 0
1.08082 0.00560703 0
1.07745 0.0057094 0
1.0741 0.00585317 0
1.07077 0.00594554 0
1.06746 0.00607624 0
1.06417 0.00615662 0
1.06089 0.00627245 0
1.05764 0.00633916 0
1.0544 0.00643867 0
1.05119 0.00649034 0
1.048 0.00657242 0
1.04484 0.00660798 0
1.0417 0.00667188 0
1.03858 0.00669057 0
1.03549 0.00673585 0
1.03244 0.0067372 0
1.02941 0.00676375 0
1.02642 0.00674758 0
1.02346 0.0067556 0
1.02054 0.00672201 0
1.01765 0.00671198 0
1.01481 0.00666134 0
1.01201 0.00663402 0
1.00926 0.00656695 0
1.00655 0.0065233 0
1.00389 0.00644065 0
1.00128 0.00638186 0
0.998719 0.00628467 0
0.996212 0.00621209 0
0.993762 0.00610156 0
0.991366 0.00601666 0
0.989029 0.00589415 0
0.986749 0.00579847 0
0.984529 0.00566542 0
0.982368 0.00556057 0
0.98027 0.00541848 0
0.978231 0.00530604 0
0.976256 0.00515645 0
0.974341 0.005038 0
0.97249 0.00488242 0
0.9707 0.00475945 0
0.968972 0.00459936 0
0.967305 0.00447326 0
0.965701 0.00431009 0
0.964156 0.00418213 0
0.962673 0.00401718 0
0.961248 0.0038885 0
0.959883 0.00372296 0
0.958576 0.00359453 0
0.957328 0.00342947 0
0.956137 0.00330212 0
0.955005 0.00313854 0
0.953929 0.00301302 0
0.952913 0.00285197 0
0.951953 0.00272917 0
0.951055 0.00257224 0
0.950215 0.00245383 0
0.949439 0.00230444 0
0.948724 0.00219448 0
0.948078 0.00206125 0
0.947505 0.00197034 0
0.947029 0.00187556 0
0.946704 0.00183105 0
0.971824 -0.000148202 0
0.947086 -0.000338582 0
0.925363 -0.000564418 0
0.906261 -0.000817976 0
0.889426 -0.00109528 0
0.874552 -0.00138914 0
0.861375 -0.00169865 0
0.849676 -0.00201696 0
0.839272 -0.00234605 0
0.830014 -0.00267911 0
0.821779 -0.00302066 0
0.814469 -0.00336365 0
0.808003 -0.00371464 0
0.802316 -0.00406617 0
0.797354 -0.00442633 0
0.793075 -0.00478717 0
0.789442 -0.00515777 0
0.786425 -0.0055297 0
0.783998 -0.00591255 0
0.782138 -0.00629744 0
0.780827 -0.00669403 0
0.780046 -0.00709307 0
0.779781 -0.00750391 0
0.780018 -0.00791704 0
0.780743 -0.00834112 0
0.781945 -0.00876653 0
0.783614 -0.00920094 0
0.785739 -0.00963473 0
0.78831 -0.0100743 0
0.791319 -0.0105103 0
0.794758 -0.0109475 0
0.798618 -0.0113769 0
0.802892 -0.0118019 0
0.80757 -0.0122137 0
0.812647 -0.0126141 0
0.818114 -0.0129949 0
0.823961 -0.0133565 0
0.830181 -0.0136914 0
0.836765 -0.0139983 0
0.843701 -0.014271 0
0.85098 -0.0145067 0
0.85859 -0.0147005 0
0.866519 -0.0148487 0
0.874752 -0.0149478 0
0.883276 -0.0149933 0
0.892074 -0.0149835 0
0.90113 -0.0149134 0
0.910426 -0.0147835 0
0.919944 -0.0145885 0
0.929663 -0.0143312 0
0.939563 -0.0140061 0
0.949621 -0.0136188 0
0.959816 -0.0131636 0
0.970123 -0.012649 0
0.98052 -0.0120691 0
0.99098 -0.0114351 0
1.00148 -0.0107412 0
1.012 -0.0100011 0
1.0225 -0.00920865 0
1.03297 -0.0083804 0
1.04339 -0.00750926 0
1.05371 -0.00661442 0
1.06393 -0.00568768 0
1.07401 -0.0047506 0
1.08393 -0.00379345 0
1.09367 -0.00284003 0
1.10321 -0.00187857 0
1.11252 -0.00093505 0
1.12159 4.86789e-06 0
1.13038 0.000913107 0
1.13889 0.00180702 0
1.1471 0.00265646 0
1.15498 0.00348229 0
1.16253 0.00425222 0
1.16972 0.00499109 0
1.17654 0.00566436 0
1.18298 0.00630126 0
1.18902 0.00686484 0
1.19467 0.00738913 0
1.19989 0.00783451 0
1.2047 0.00824017 0
1.20908 0.00856355 0
1.21304 0.00884931 0
1.21655 0.00905162 0
1.21963 0.00922084 0
1.22228 0.00930753 0
1.22449 0.00936791 0
1.22628 0.00934856 0
1.22764 0.00931164 0
1.22859 0.00919938 0
1.22914 0.00907987 0
1.22928 0.0088906 0
1.22906 0.00870551 0
1.22845 0.00845704 0
1.22751 0.00822476 0
1.22622 0.00793578 0
1.22462 0.00767504 0
1.22272 0.00736416 0
1.22055 0.00709311 0
1.21812 0.0067779 0
1.21546 0.00651317 0
1.21258 0.00620938 0
1.20951 0.00596538 0
1.20626 0.0056863 0
1.20286 0.00547476 0
1.19933 0.00523084 0
1.19569 0.00506051 0
1.19195 0.00485921 0
1.18813 0.00473582 0
1.18425 0.00458167 0
1.18032 0.00450809 0
1.17635 0.00440293 0
1.17237 0.00437948 0
1.16837 0.00432281 0
1.16437 0.00434769 0
1.16037 0.00433711 0
1.15639 0.00440681 0
1.15242 0.00443844 0
1.14848 0.00454823 0
1.14457 0.0046172 0
1.14069 0.00476152 0
1.13683 0.00486229 0
1.13302 0.00503511 0
1.12924 0.00516184 0
1.12549 0.00535697 0
1.12178 0.00550375 0
1.1181 0.00571506 0
1.11446 0.00587611 0
1.11085 0.00609768 0
1.10727 0.00626749 0
1.10372 0.00649375 0
1.1002 0.00666716 0
1.09671 0.00689295 0
1.09324 0.0070652 0
1.08979 0.00728582 0
1.08637 0.00745258 0
1.08298 0.00766382 0
1.0796 0.00782121 0
1.07624 0.00801932 0
1.07291 0.00816392 0
1.06959 0.00834566 0
1.0663 0.00847449 0
1.06302 0.0086371 0
1.05976 0.0087476 0
1.05653 0.00888883 0
1.05331 0.0089789 0
1.05012 0.00909692 0
1.04695 0.00916489 0
1.0438 0.0092584 0
1.04068 0.00930302 0
1.03759 0.00937115 0
1.03452 0.0093916 0
1.03149 0.00943393 0
1.02848 0.00942981 0
1.02551 0.00944636 0
1.02257 0.00941766 0
1.01967 0.00940887 0
1.01681 0.00935597 0
1.01399 0.00932265 0
1.01122 0.00924629 0
1.00848 0.00918961 0
1.0058 0.00909087 0
1.00316 0.00901228 0
1.00057 0.00889253 0
0.998032 0.00879376 0
0.995549 0.00865461 0
0.993118 0.0085376 0
0.990745 0.00838088 0
0.988427 0.0082477 0
0.986169 0.0080754 0
0.983968 0.00792822 0
0.981829 0.00774241 0
0.979748 0.00758345 0
0.97773 0.00738628 0
0.975772 0.00721773 0
0.973877 0.00701133 0
0.972042 0.00683534 0
0.97027 0.0066218 0
0.968558 0.00644039 0
0.966908 0.00622172 0
0.965318 0.00603676 0
0.963789 0.00581485 0
0.962319 0.00562805 0
0.960909 0.00540462 0
0.959556 0.00521746 0
0.958264 0.00499406 0
0.957026 0.00480784 0
0.955849 0.00458584 0
0.954726 0.00440168 0
0.953662 0.00418242 0
0.952654 0.00400145 0
0.951706 0.00378658 0
0.950814 0.00361052 0
0.949984 0.00340306 0
0.949213 0.00323563 0
0.948507 0.00304282 0
0.947865 0.00289359 0
0.947299 0.00273414 0
0.946825 0.00262801 0
0.946505 0.00254994 0
0.97177 -0.000189947 0
0.946988 -0.000434416 0
0.92523 -0.000723341 0
0.906099 -0.00104942 0
0.889243 -0.00140361 0
0.874351 -0.00178211 0
0.861162 -0.00217685 0
0.849454 -0.00258751 0
0.839044 -0.00300669 0
0.82978 -0.00343713 0
0.821541 -0.00387172 0
0.814226 -0.00431576 0
0.807756 -0.00476205 0
0.802064 -0.00521786 0
0.797098 -0.00567571 0
0.792812 -0.00614421 0
0.789173 -0.00661545 0
0.786148 -0.00709884 0
0.783712 -0.007586 0
0.781844 -0.00808659 0
0.780523 -0.00859177 0
0.779732 -0.009111 0
0.779457 -0.00963503 0
0.779683 -0.0101727 0
0.780398 -0.0107145 0
0.781591 -0.0112682 0
0.783251 -0.011824 0
0.785369 -0.0123886 0
0.787934 -0.0129521 0
0.79094 -0.0135195 0
0.794376 -0.0140808 0
0.798237 -0.0146396 0
0.802514 -0.0151861 0
0.8072 -0.0157219 0
0.812286 -0.0162376 0
0.817766 -0.0167331 0
0.82363 -0.0171994 0
0.829872 -0.0176349 0
0.83648 -0.0180313 0
0.843445 -0.0183855 0
0.850757 -0.0186905 0
0.858403 -0.0189419 0
0.866371 -0.019134 0
0.874647 -0.0192617 0
0.883216 -0.0193213 0
0.892063 -0.0193069 0
0.901168 -0.0192171 0
0.910516 -0.019046 0
0.920086 -0.0187946 0
0.929857 -0.0184573 0
0.939807 -0.018038 0
0.949916 -0.0175312 0
0.960158 -0.0169441 0
0.97051 -0.0162715 0
0.980948 -0.0155236 0
0.991447 -0.0146958 0
1.00198 -0.0138015 0
1.01252 -0.0128359 0
1.02305 -0.0118157 0
1.03354 -0.0107358 0
1.04395 -0.00961559 0
1.05428 -0.00844961 0
1.06449 -0.00725979 0
1.07456 -0.00603941 0
1.08446 -0.00481287 0
1.09417 -0.00357167 0
1.10367 -0.00234241 0
1.11295 -0.00111426 0
1.12196 8.41526e-05 0
1.1307 0.00126657 0
1.13915 0.00240247 0
1.14729 0.00350907 0
1.1551 0.00455398 0
1.16256 0.00555841 0
1.16967 0.00648809 0
1.1764 0.0073687 0
1.18275 0.00816398 0
1.18871 0.00890454 0
1.19425 0.00955193 0
1.19938 0.0101421 0
1.20409 0.0106341 0
1.20838 0.0110696 0
1.21223 0.0114049 0
1.21565 0.0116875 0
1.21864 0.0118706 0
1.2212 0.0120079 0
1.22332 0.012049 0
1.22502 0.0120537 0
1.2263 0.0119679 0
1.22717 0.0118573 0
1.22764 0.0116634 0
1.22772 0.0114581 0
1.22742 0.0111781 0
1.22677 0.010901 0
1.22576 0.0105586 0
1.22444 0.0102336 0
1.22279 0.00985257 0
1.22086 0.00950342 0
1.21865 0.00910698 0
1.2162 0.00875588 0
1.2135 0.00836527 0
1.21061 0.008032 0
1.20752 0.00766566 0
1.20426 0.00736683 0
1.20085 0.00703974 0
1.19732 0.00678829 0
1.19367 0.0065117 0
1.18994 0.00631673 0
1.18612 0.0060981 0
1.18225 0.00596499 0
1.17832 0.00580819 0
1.17437 0.00573888 0
1.17038 0.00564458 0
1.1664 0.00563804 0
1.1624 0.00560424 0
1.15842 0.00565704 0
1.15444 0.00567962 0
1.15049 0.00578648 0
1.14656 0.00585976 0
1.14266 0.00601411 0
1.13879 0.00613137 0
1.13495 0.00632585 0