# vtk DataFile Version 3.0
Flow field at step 1500
ASCII
DATASET STRUCTURED_GRID
DIMENSIONS 200 100 1
POINTS 20000 float
0.005 0.005 0
0.015 0.005 0
0.025 0.005 0
0.035 0.005 0
0.045 0.005 0
0.055 0.005 0
0.065 0.005 0
0.075 0.005 0
0.085 0.005 0
0.095 0.005 0
0.105 0.005 0
0.115 0.005 0
0.125 0.005 0
0.135 0.005 0
0.145 0.005 0
0.155 0.005 0
0.165 0.005 0
0.175 0.005 0
0.185 0.005 0
0.195 0.005 0
0.205 0.005 0
0.215 0.005 0
0.225 0.005 0
0.235 0.005 0
0.245 0.005 0
0.255 0.005 0
0.265 0.005 0
0.275 0.005 0
0.285 0.005 0
0.295 0.005 0
0.305 0.005 0
0.315 0.005 0
0.325 0.005 0
0.335 0.005 0
0.345 0.005 0
0.355 0.005 0
0.365 0.005 0
0.375 0.005 0
0.385 0.005 0
0.395 0.005 0
0.405 0.005 0
0.415 0.005 0
0.425 0.005 0
0.435 0.005 0
0.445 0.005 0
0.455 0.005 0
0.465 0.005 0
0.475 0.005 0
0.485 0.005 0
0.495 0.005 0
0.505 0.005 0
0.515 0.005 0
0.525 0.005 0
0.535 0.005 0
0.545 0.005 0
0.555 0.005 0
0.565 0.005 0
0.575 0.005 0
0.585 0.005 0
0.595 0.005 0
0.605 0.005 0
0.615 0.005 0
0.625 0.005 0
0.635 0.005 0
0.645 0.005 0
0.655 0.005 0
0.665 0.005 0
0.675 0.005 0
0.685 0.005 0
0.695 0.005 0
0.705 0.005 0
0.715 0.005 0
0.725 0.005 0
0.735 0.005 0
0.745 0.005 0
0.755 0.005 0
0.765 0.005 0
0.775 0.005 0
0.785 0.005 0
0.795 0.005 0
0.805 0.005 0
0.815 0.005 0
0.825 0.005 0
0.835 0.005 0
0.845 0.005 0
0.855 0.005 0
0.865 0.005 0
0.875 0.005 0
0.885 0.005 0
0.895 0.005 0
0.905 0.005 0
0.915 0.005 0
0.925 0.005 0
0.935 0.005 0
0.945 0.005 0
0.955 0.005 0
0.965 0.005 0
0.975 0.005 0
0.985 0.005 0
0.995 0.005 0
1.005 0.005 0
1.015 0.005 0
1.025 0.005 0
1.035 0.005 0
1.045 0.005 0
1.055 0.005 0
1.065 0.005 0
1.075 0.005 0
1.085 0.005 0
1.095 0.005 0
1.105 0.005 0
1.115 0.005 0
1.125 0.005 0
1.135 0.005 0
1.145 0.005 0
1.155 0.005 0
1.165 0.005 0
1.175 0.005 0
1.185 0.005 0
1.195 0.005 0
1.205 0.005 0
1.215 0.005 0
1.225 0.005 0
1.235 0.005 0
1.245 0.005 0
1.255 0.005 0
1.265 0.005 0
1.275 0.005 0
1.285 0.005 0
1.295 0.005 0
1.305 0.005 0
1.315 0.005 0
1.325 0.005 0
1.335 0.005 0
1.345 0.005 0
1.355 0.005 0
1.365 0.005 0
1.375 0.005 0
1.385 0.005 0
1.395 0.005 0
1.405 0.005 0
1.415 0.005 0
1.425 0.005 0
1.435 0.005 0
1.445 0.005 0
1.455 0.005 0
1.465 0.005 0
1.475 0.005 0
1.485 0.005 0
1.495 0.005 0
1.505 0.005 0
1.515 0.005 0
1.525 0.005 0
1.535 0.005 0
1.545 0.005 0
1.555 0.005 0
1.565 0.005 0
1.575 0.005 0
1.585 0.005 0
1.595 0.005 0
1.605 0.005 0
1.615 0.005 0
1.625 0.005 0
1.635 0.005 0
1.645 0.005 0
1.655 0.005 0
1.665 0.005 0
1.675 0.005 0
1.685 0.005 0
1.695 0.005 0
1.705 0.005 0
1.715 0.005 0
1.725 0.005 0
1.735 0.005 0
1.745 0.005 0
1.755 0.005 0
1.765 0.005 0
1.775 0.005 0
1.785 0.005 0
1.795 0.005 0
1.805 0.005 0
1.815 0.005 0
1.825 0.005 0
1.835 0.005 0
1.845 0.005 0
1.855 0.005 0
1.865 0.005 0
1.875 0.005 0
1.885 0.005 0
1.895 0.005 0
1.905 0.005 0
1.915 0.005 0
1.925 0.005 0
1.935 0.005 0
1.945 0.005 0
1.955 0.005 0
1.965 0.005 0
1.975 0.005 0
1.985 0.005 0
1.995 0.005 0
0.005 0.015 0
0.015 0.015 0
0.025 0.015 0
0.035 0.015 0
0.045 0.015 0
0.055 0.015 0
0.065 0.015 0
0.075 0.015 0
0.085 0.015 0
0.095 0.015 0
0.105 0.015 0
0.115 0.015 0
0.125 0.015 0
0.135 0.015 0
0.145 0.015 0
0.155 0.015 0
0.165 0.015 0
0.175 0.015 0
0.185 0.015 0
0.195 0.015 0
0.205 0.015 0
0.215 0.015 0
0.225 0.015 0
0.235 0.015 0
0.245 0.015 0
0.255 0.015 0
0.265 0.015 0
0.275 0.015 0
0.285 0.015 0
0.295 0.015 0
0.305 0.015 0
0.315 0.015 0
0.325 0.015 0
0.335 0.015 0
0.345 0.015 0
0.355 0.015 0
0.365 0.015 0
0.375 0.015 0
0.385 0.015 0
0.395 0.015 0
0.405 0.015 0
0.415 0.015 0
0.425 0.015 0
0.435 0.015 0
0.445 0.015 0
0.455 0.015 0
0.465 0.015 0
0.475 0.015 0
0.485 0.015 0
0.495 0.015 0
0.505 0.015 0
0.515 0.015 0
0.525 0.015 0
0.535 0.015 0
0.545 0.015 0
0.555 0.015 0
0.565 0.015 0
0.575 0.015 0
0.585 0.015 0
0.595 0.015 0
0.605 0.015 0
0.615 0.015 0
0.625 0.015 0
0.635 0.015 0
0.645 0.015 0
0.655 0.015 0
0.665 0.015 0
0.675 0.015 0
0.685 0.015 0
0.695 0.015 0
0.705 0.015 0
0.715 0.015 0
0.725 0.015 0
0.735 0.015 0
0.745 0.015 0
0.755 0.015 0
0.765 0.015 0
0.775 0.015 0
0.785 0.015 0
0.795 0.015 0
0.805 0.015 0
0.815 0.015 0
0.825 0.015 0
0.835 0.015 0
0.845 0.015 0
0.855 0.015 0
0.865 0.015 0
0.875 0.015 0
0.885 0.015 0
0.895 0.015 0
0.905 0.015 0
0.915 0.015 0
0.925 0.015 0
0.935 0.015 0
0.945 0.015 0
0.955 0.015 0
0.965 0.015 0
0.975 0.015 0
0.985 0.015 0
0.995 0.015 0
1.005 0.015 0
1.015 0.015 0
1.025 0.015 0
1.035 0.015 0
1.045 0.015 0
1.055 0.015 0
1.065 0.015 0
1.075 0.015 0
1.085 0.015 0
1.095 0.015 0
1.105 0.015 0
1.115 0.015 0
1.125 0.015 0
1.135 0.015 0
1.145 0.015 0
1.155 0.015 0
1.165 0.015 0
1.175 0.015 0
1.185 0.015 0
1.195 0.015 0
1.205 0.015 0
1.215 0.015 0
1.225 0.015 0
1.235 0.015 0
1.245 0.015 0
1.255 0.015 0
1.265 0.015 0
1.275 0.015 0
1.285 0.015 0
1.295 0.015 0
1.305 0.015 0
1.315 0.015 0
1.325 0.015 0
1.335 0.015 0
1.345 0.015 0
1.355 0.015 0
1.365 0.015 0
1.375 0.015 0
1.385 0.015 0
1.395 0.015 0
1.405 0.015 0
1.415 0.015 0
1.425 0.015 0
1.435 0.015 0
1.445 0.015 0
1.455 0.015 0
1.465 0.015 0
1.475 0.015 0
1.485 0.015 0
1.495 0.015 0
1.505 0.015 0
1.515 0.015 0
1.525 0.015 0
1.535 0.015 0
1.545 0.015 0
1.555 0.015 0
1.565 0.015 0
1.575 0.015 0
1.585 0.015 0
1.595 0.015 0
1.605 0.015 0
1.615 0.015 0
1.625 0.015 0
1.635 0.015 0
1.645 0.015 0
1.655 0.015 0
1.665 0.015 0
1.675 0.015 0
1.685 0.015 0
1.695 0.015 0
1.705 0.015 0
1.715 0.015 0
1.725 0.015 0
1.735 0.015 0
1.745 0.015 0
1.755 0.015 0
1.765 0.015 0
1.775 0.015 0
1.785 0.015 0
1.795 0.015 0
1.805 0.015 0
1.815 0.015 0
1.825 0.015 0
1.835 0.015 0
1.845 0.015 0
1.855 0.015 0
1.865 0.015 0
1.875 0.015 0
1.885 0.015 0
1.895 0.015 0
1.905 0.015 0
1.915 0.015 0
1.925 0.015 0
1.935 0.015 0
1.945 0.015 0
1.955 0.015 0
1.965 0.015 0
1.975 0.015 0
1.985 0.015 0
1.995 0.015 0
0.005 0.025 0
0.015 0.025 0
0.025 0.025 0
0.035 0.025 0
0.045 0.025 0
0.055 0.025 0
0.065 0.025 0
0.075 0.025 0
0.085 0.025 0
0.095 0.025 0
0.105 0.025 0
0.115 0.025 0
0.125 0.025 0
0.135 0.025 0
0.145 0.025 0
0.155 0.025 0
0.165 0.025 0
0.175 0.025 0
0.185 0.025 0
0.195 0.025 0
0.205 0.025 0
0.215 0.025 0
0.225 0.025 0
0.235 0.025 0
0.245 0.025 0
0.255 0.025 0
0.265 0.025 0
0.275 0.025 0
0.285 0.025 0
0.295 0.025 0
0.305 0.025 0
0.315 0.025 0
0.325 0.025 0
0.335 0.025 0
0.345 0.025 0
0.355 0.025 0
0.365 0.025 0
0.375 0.025 0
0.385 0.025 0
0.395 0.025 0
0.405 0.025 0
0.415 0.025 0
0.425 0.025 0
0.435 0.025 0
0.445 0.025 0
0.455 0.025 0
0.465 0.025 0
0.475 0.025 0
0.485 0.025 0
0.495 0.025 0
0.505 0.025 0
0.515 0.025 0
0.525 0.025 0
0.535 0.025 0
0.545 0.025 0
0.555 0.025 0
0.565 0.025 0
0.575 0.025 0
0.585 0.025 0
0.595 0.025 0
0.605 0.025 0
0.615 0.025 0
0.625 0.025 0
0.635 0.025 0
0.645 0.025 0
0.655 0.025 0
0.665 0.025 0
0.675 0.025 0
0.685 0.025 0
0.695 0.025 0
0.705 0.025 0
0.715 0.025 0
0.725 0.025 0
0.735 0.025 0
0.745 0.025 0
0.755 0.025 0
0.765 0.025 0
0.775 0.025 0
0.785 0.025 0
0.795 0.025 0
0.805 0.025 0
0.815 0.025 0
0.825 0.025 0
0.835 0.025 0
0.845 0.025 0
0.855 0.025 0
0.865 0.025 0
0.875 0.025 0
0.885 0.025 0
0.895 0.025 0
0.905 0.025 0
0.915 0.025 0
0.925 0.025 0
0.935 0.025 0
0.945 0.025 0
0.955 0.025 0
0.965 0.025 0
0.975 0.025 0
0.985 0.025 0
0.995 0.025 0
1.005 0.025 0
1.015 0.025 0
1.025 0.025 0
1.035 0.025 0
1.045 0.025 0
1.055 0.025 0
1.065 0.025 0
1.075 0.025 0
1.085 0.025 0
1.095 0.025 0
1.105 0.025 0
1.115 0.025 0
1.125 0.025 0
1.135 0.025 0
1.145 0.025 0
1.155 0.025 0
1.165 0.025 0
1.175 0.025 0
1.185 0.025 0
1.195 0.025 0
1.205 0.025 0
1.215 0.025 0
1.225 0.025 0
1.235 0.025 0
1.245 0.025 0
1.255 0.025 0
1.265 0.025 0
1.275 0.025 0
1.285 0.025 0
1.295 0.025 0
1.305 0.025 0
1.315 0.025 0
1.325 0.025 0
1.335 0.025 0
1.345 0.025 0
1.355 0.025 0
1.365 0.025 0
1.375 0.025 0
1.385 0.025 0
1.395 0.025 0
1.405 0.025 0
1.415 0.025 0
1.425 0.025 0
1.435 0.025 0
1.445 0.025 0
1.455 0.025 0
1.465 0.025 0
1.475 0.025 0
1.485 0.025 0
1.495 0.025 0
1.505 0.025 0
1.515 0.025 0
1.525 0.025 0
1.535 0.025 0
1.545 0.025 0
1.555 0.025 0
1.565 0.025 0
1.575 0.025 0
1.585 0.025 0
1.595 0.025 0
1.605 0.025 0
1.615 0.025 0
1.625 0.025 0
1.635 0.025 0
1.645 0.025 0
1.655 0.025 0
1.665 0.025 0
1.675 0.025 0
1.685 0.025 0
1.695 0.025 0
1.705 0.025 0
1.715 0.025 0
1.725 0.025 0
1.735 0.025 0
1.745 0.025 0
1.755 0.025 0
1.765 0.025 0
1.775 0.025 0
1.785 0.025 0
1.795 0.025 0
1.805 0.025 0
1.815 0.025 0
1.825 0.025 0
1.835 0.025 0
1.845 0.025 0
1.855 0.025 0
1.865 0.025 0
1.875 0.025 0
1.885 0.025 0
1.895 0.025 0
1.905 0.025 0
1.915 0.025 0
1.925 0.025 0
1.935 0.025 0
1.945 0.025 0
1.955 0.025 0
1.965 0.025 0
1.975 0.025 0
1.985 0.025 0
1.995 0.025 0
0.005 0.035 0
0.015 0.035 0
0.025 0.035 0
0.035 0.035 0
0.045 0.035 0
0.055 0.035 0
0.065 0.035 0
0.075 0.035 0
0.085 0.035 0
0.095 0.035 0
0.105 0.035 0
0.115 0.035 0
0.125 0.035 0
0.135 0.035 0
0.145 0.035 0
0.155 0.035 0
0.165 0.035 0
0.175 0.035 0
0.185 0.035 0
0.195 0.035 0
0.205 0.035 0
0.215 0.035 0
0.225 0.035 0
0.235 0.035 0
0.245 0.035 0
0.255 0.035 0
0.265 0.035 0
0.275 0.035 0
0.285 0.035 0
0.295 0.035 0
0.305 0.035 0
0.315 0.035 0
0.325 0.035 0
0.335 0.035 0
0.345 0.035 0
0.355 0.035 0
0.365 0.035 0
0.375 0.035 0
0.385 0.035 0
0.395 0.035 0
0.405 0.035 0
0.415 0.035 0
0.425 0.035 0
0.435 0.035 0
0.445 0.035 0
0.455 0.035 0
0.465 0.035 0
0.475 0.035 0
0.485 0.035 0
0.495 0.035 0
0.505 0.035 0
0.515 0.035 0
0.525 0.035 0
0.535 0.035 0
0.545 0.035 0
0.555 0.035 0
0.565 0.035 0
0.575 0.035 0
0.585 0.035 0
0.595 0.035 0
0.605 0.035 0
0.615 0.035 0
0.625 0.035 0
0.635 0.035 0
0.645 0.035 0
0.655 0.035 0
0.665 0.035 0
0.675 0.035 0
0.685 0.035 0
0.695 0.035 0
0.705 0.035 0
0.715 0.035 0
0.725 0.035 0
0.735 0.035 0
0.745 0.035 0
0.755 0.035 0
0.765 0.035 0
0.775 0.035 0
0.785 0.035 0
0.795 0.035 0
0.805 0.035 0
0.815 0.035 0
0.825 0.035 0
0.835 0.035 0
0.845 0.035 0
0.855 0.035 0
0.865 0.035 0
0.875 0.035 0
0.885 0.035 0
0.895 0.035 0
0.905 0.035 0
0.915 0.035 0
0.925 0.035 0
0.935 0.035 0
0.945 0.035 0
0.955 0.035 0
0.965 0.035 0
0.975 0.035 0
0.985 0.035 0
0.995 0.035 0
1.005 0.035 0
1.015 0.035 0
1.025 0.035 0
1.035 0.035 0
1.045 0.035 0
[...]
POINT_DATA 20000
VECTORS velocity float
0.952747 -2.47158e-05 0
0.913008 -5.54824e-05 0
0.879984 -9.08142e-05 0
0.852808 -0.000129489 0
0.83063 -0.000170623 0
0.812666 -0.000213494 0
0.79822 -0.000257695 0
0.786692 -0.000302836 0
0.777576 -0.000348826 0
0.770449 -0.000395464 0
0.764965 -0.000442846 0
0.760839 -0.000490867 0
0.757842 -0.000539716 0
0.75579 -0.000589334 0
0.754534 -0.000639935 0
0.753955 -0.000691484 0
0.753961 -0.000744173 0
0.754476 -0.000797979 0
0.755443 -0.000853037 0
0.756816 -0.000909336 0
0.758559 -0.000966919 0
0.760645 -0.00102579 0
0.763054 -0.00108588 0
0.76577 -0.00114722 0
0.768782 -0.00120957 0
0.772083 -0.00127301 0
0.775667 -0.00133713 0
0.77953 -0.00140203 0
0.783671 -0.00146712 0
0.78809 -0.00153255 0
0.792787 -0.00159751 0
0.797761 -0.0016622 0
0.803015 -0.00172561 0
0.808549 -0.00178798 0
0.814363 -0.00184808 0
0.820458 -0.00190626 0
0.826833 -0.00196105 0
0.833488 -0.00201289 0
0.84042 -0.00206014 0
0.847627 -0.00210337 0
0.855105 -0.00214073 0
0.862848 -0.00217298 0
0.870851 -0.00219811 0
0.879105 -0.00221711 0
0.887603 -0.00222783 0
0.896333 -0.00223152 0
0.905283 -0.00222593 0
0.914442 -0.00221263 0
0.923795 -0.0021893 0
0.933326 -0.00215787 0
0.943018 -0.00211593 0
0.952854 -0.00206585 0
0.962815 -0.00200516 0
0.97288 -0.00193664 0
0.98303 -0.00185775 0
0.993242 -0.00177175 0
1.00349 -0.001676 0
1.01376 -0.00157421 0
1.02403 -0.00146362 0
1.03427 -0.0013484 0
1.04445 -0.0012256 0
1.05456 -0.00109987 0
1.06457 -0.000968003 0
1.07445 -0.000835082 0
1.0842 -0.000697605 0
1.09377 -0.000561086 0
1.10315 -0.000421628 0
1.11232 -0.000285183 0
1.12126 -0.00014738 0
1.12994 -1.46074e-05 0
1.13836 0.000118061 0
1.14647 0.00024379 0
1.15428 0.000368141 0
1.16177 0.000483813 0
1.16891 0.00059708 0
1.17569 0.000700152 0
1.1821 0.000800083 0
1.18814 0.000888563 0
1.19377 0.00097349 0
1.19901 0.001046 0
1.20383 0.00111488 0
1.20824 0.00117068 0
1.21223 0.00122312 0
1.21579 0.0012621 0
1.21893 0.00129834 0
1.22165 0.00132104 0
1.22394 0.00134189 0
1.22581 0.00134938 0
1.22728 0.00135621 0
1.22834 0.00135006 0
1.22901 0.00134463 0
1.2293 0.00132681 0
1.22923 0.0013112 0
1.2288 0.00128393 0
1.22804 0.00126043 0
1.22697 0.00122605 0
1.2256 0.00119699 0
1.22396 0.00115786 0
1.22207 0.0011255 0
1.21994 0.00108384 0
1.21761 0.00105025 0
1.2151 0.00100807 0
1.21242 0.000975047 0
1.2096 0.000934053 0
1.20667 0.000903049 0
1.20364 0.000864596 0
1.20053 0.000836696 0
1.19737 0.000801776 0
1.19417 0.000777695 0
1.19094 0.000746948 0
1.18772 0.000727061 0
1.1845 0.000700808 0
1.1813 0.000685186 0
1.17813 0.000663481 0
1.175 0.000651955 0
1.17193 0.000634639 0
1.16891 0.000626855 0
1.16595 0.000613618 0
1.16306 0.000609098 0
1.16024 0.000599529 0
1.1575 0.000597724 0
1.15483 0.000591365 0
1.15223 0.000591697 0
1.14971 0.000588079 0
1.14726 0.000589981 0
1.14488 0.000588651 0
1.14257 0.00059159 0
1.14033 0.000592138 0
1.13815 0.000595634 0
1.13604 0.0005977 0
1.13398 0.000601334 0
1.13198 0.000604619 0
1.13003 0.000608041 0
1.12813 0.000612303 0
1.12627 0.000615229 0
1.12445 0.000620285 0
1.12267 0.000622497 0
1.12093 0.000628216 0
1.11921 0.000629552 0
1.11752 0.000635848 0
1.11586 0.000636201 0
1.11422 0.000643025 0
1.11259 0.000642332 0
1.11098 0.000649666 0
1.10939 0.000647902 0
1.1078 0.000655749 0
1.10623 0.000652921 0
1.10466 0.000661298 0
1.1031 0.000657439 0
1.10154 0.000666372 0
1.09998 0.00066153 0
1.09843 0.000671046 0
1.09687 0.000665285 0
1.09531 0.000675409 0
1.09375 0.0006688 0
1.09219 0.000679548 0
1.09062 0.000672165 0
1.08905 0.000683543 0
1.08747 0.00067546 0
1.08588 0.000687459 0
1.08429 0.000678747 0
1.0827 0.000691339 0
1.08109 0.000682062 0
1.07949 0.000695201 0
1.07787 0.000685413 0
1.07625 0.000699033 0
1.07463 0.000688776 0
1.073 0.000702787 0
1.07136 0.000692088 0
1.06972 0.000706377 0
1.06808 0.000695249 0
1.06644 0.000709677 0
1.06479 0.000698112 0
1.06315 0.000712515 0
1.06151 0.00070049 0
1.05987 0.000714675 0
1.05823 0.000702145 0
1.0566 0.000715892 0
1.05498 0.000702792 0
1.05337 0.000715849 0
1.05177 0.000702092 0
1.05019 0.000714178 0
1.04862 0.000699658 0
1.04707 0.000710461 0
1.04554 0.000695052 0
1.04404 0.000704229 0
1.04257 0.000687792 0
1.04113 0.000694981 0
1.03972 0.000677375 0
1.03836 0.000682209 0
1.03704 0.000663327 0
1.03576 0.000665483 0
1.03454 0.000645345 0
1.03338 0.000644647 0
1.03228 0.000623646 0
1.03124 0.000620313 0
1.03029 0.000599869 0
1.02942 0.000595058 0
1.02867 0.000579328 0
1.02815 0.000576235 0
0.952732 -7.4093e-05 0
0.91298 -0.000166339 0
0.879947 -0.000272235 0
0.852764 -0.000388208 0
0.830581 -0.00051147 0
0.812612 -0.000640052 0
0.798163 -0.000772477 0
0.786633 -0.000907899 0
0.777514 -0.00104566 0
0.770386 -0.00118561 0
0.764899 -0.00132754 0
0.760771 -0.00147166 0
0.757773 -0.00161799 0
0.755718 -0.00176691 0
0.754459 -0.00191854 0
0.753878 -0.00207325 0
0.753881 -0.00223119 0
0.754393 -0.00239267 0
0.755357 -0.00255778 0
0.756727 -0.00272671 0
0.758467 -0.0028995 0
0.76055 -0.00307612 0
0.762956 -0.00325654 0
0.765669 -0.0034405 0
0.768679 -0.00362785 0
0.771977 -0.00381805 0
0.775559 -0.00401085 0
0.779421 -0.00420537 0
0.783561 -0.00440125 0
0.787979 -0.00459727 0
0.792676 -0.00479293 0
0.797651 -0.00498663 0
0.802906 -0.00517779 0
0.808442 -0.00536441 0
0.81426 -0.00554584 0
0.820359 -0.00571972 0
0.826739 -0.00588536 0
0.8334 -0.0060401 0
0.840339 -0.00618326 0
0.847554 -0.00631192 0
0.855041 -0.00642555 0
0.862794 -0.00652105 0
0.870808 -0.00659811 0
0.879074 -0.00665356 0
0.887584 -0.00668747 0
0.896327 -0.00669668 0
0.905291 -0.00668176 0
0.914464 -0.00663968 0
0.923831 -0.00657161 0
0.933376 -0.00647476 0
0.943083 -0.00635101 0
0.952933 -0.00619784 0
0.962907 -0.00601793 0
0.972985 -0.00580907 0
0.983147 -0.00557476 0
0.99337 -0.00531309 0
1.00363 -0.0050284 0
1.01391 -0.00471902 0
1.02418 -0.00439008 0
1.03443 -0.00404009 0
1.04461 -0.0036749 0
1.05473 -0.00329304 0
1.06474 -0.00290104 0
1.07462 -0.00249733 0
1.08436 -0.00208898 0
1.09393 -0.00167415 0
1.1033 -0.00126041 0
1.11247 -0.000845488 0
1.12139 -0.000437327 0
1.13007 -3.30642e-05 0
1.13846 0.000359024 0
1.14657 0.000742551 0
1.15436 0.00110897 0
1.16182 0.00146278 0
1.16895 0.0017952 0
1.17571 0.00211172 0
1.1821 0.00240335 0
1.18811 0.00267668 0
1.19373 0.0029225 0
1.19894 0.00314858 0
1.20374 0.00334545 0
1.20813 0.00352213 0
1.21209 0.00366885 0
1.21563 0.00379592 0
1.21875 0.0038932 0
1.22144 0.00397228 0
1.22371 0.00402259 0
1.22556 0.00405697 0
1.22701 0.00406437 0
1.22805 0.00405881 0
1.2287 0.00402863 0
1.22898 0.00398898 0
1.22888 0.00392754 0
1.22844 0.00386043 0
1.22767 0.0037746 0
1.22658 0.00368702 0
1.2252 0.00358387 0
1.22355 0.00348277 0
1.22165 0.00336915 0
1.21951 0.00326112 0
1.21717 0.00314334 0
1.21465 0.00303424 0
1.21197 0.0029178 0
1.20914 0.00281258 0
1.2062 0.00270199 0
1.20317 0.00260452 0
1.20006 0.00250319 0
1.19689 0.00241627 0
1.19369 0.00232653 0
1.19046 0.00225184 0
1.18723 0.00217501 0
1.18401 0.00211332 0
1.18081 0.00204983 0
1.17764 0.00200106 0
1.17451 0.00195061 0
1.17143 0.00191408 0
1.16841 0.00187584 0
1.16546 0.00185039 0
1.16256 0.00182315 0
1.15974 0.00180733 0
1.157 0.00178966 0
1.15432 0.00178188 0
1.15172 0.00177228 0
1.1492 0.00177093 0
1.14675 0.0017679 0
1.14437 0.00177142 0
1.14206 0.00177357 0
1.13981 0.00178054 0
1.13764 0.00178662 0
1.13552 0.00179579 0
1.13346 0.00180473 0
1.13146 0.00181503 0
1.12951 0.00182593 0
1.1276 0.00183648 0
1.12574 0.00184865 0
1.12392 0.00185878 0
1.12214 0.00187168 0
1.1204 0.00188087 0
1.11868 0.00189414 0
1.11699 0.00190204 0
1.11533 0.00191542 0
1.11368 0.00192182 0
1.11206 0.0019352 0
1.11045 0.00193999 0
1.10885 0.00195332 0
1.10727 0.00195649 0
1.1057 0.0019698 0
1.10413 0.00197141 0
1.10257 0.00198478 0
1.10101 0.00198493 0
1.09945 0.00199847 0
1.0979 0.0019973 0
1.09634 0.00201112 0
1.09479 0.00200879 0
1.09323 0.002023 0
1.09166 0.00201968 0
1.0901 0.00203437 0
1.08853 0.00203022 0
1.08695 0.00204547 0
1.08537 0.00204061 0
1.08378 0.00205645 0
1.08219 0.00205099 0
1.08059 0.00206742 0
1.07898 0.00206144 0
1.07737 0.00207839 0
1.07575 0.00207191 0
1.07413 0.00208927 0
1.0725 0.00208228 0
1.07087 0.00209988 0
1.06924 0.0020923 0
1.0676 0.00210989 0
1.06596 0.00210159 0
1.06432 0.00211886 0
1.06268 0.00210965 0
1.06104 0.00212623 0
1.05941 0.00211584 0
1.05778 0.00213126 0
1.05615 0.00211937 0
1.05453 0.0021331 0
1.05293 0.0021193 0
1.05133 0.00213073 0
1.04975 0.00211454 0
1.04819 0.00212296 0
1.04664 0.00210384 0
1.04512 0.00210848 0
1.04362 0.00208582 0
1.04215 0.00208582 0
1.04071 0.00205898 0
1.03931 0.00205347 0
1.03795 0.00202182 0
1.03664 0.00200999 0
1.03537 0.00197308 0
1.03415 0.00195441 0
1.03299 0.00191239 0
1.03189 0.00188722 0
1.03086 0.00184187 0
1.02991 0.00181282 0
1.02904 0.00177022 0
1.0283 0.00174543 0
1.02778 0.00172248 0
0.9527 -0.00012332 0
0.912925 -0.000276836 0
0.879873 -0.000453087 0
0.852676 -0.000646065 0
0.830482 -0.000851228 0
0.812506 -0.00106517 0
0.79805 -0.00128561 0
0.786514 -0.00151092 0
0.777392 -0.00174029 0
0.770259 -0.00197314 0
0.764768 -0.00220949 0
0.760636 -0.00244933 0
0.757633 -0.00269307 0
0.755573 -0.00294097 0
0.75431 -0.00319357 0
0.753723 -0.00345121 0
0.753721 -0.00371439 0
0.754227 -0.0039834 0
0.755185 -0.00425861 0
0.756549 -0.00454018 0
0.758283 -0.00482825 0
0.76036 -0.0051228 0
0.76276 -0.00542366 0
0.765468 -0.00573061 0
0.768472 -0.0060431 0
0.771766 -0.00636067 0
0.775344 -0.0066823 0
0.779202 -0.00700729 0
0.78334 -0.00733413 0
0.787757 -0.00766183 0
0.792454 -0.00798834 0
0.79743 -0.00831239 0
0.802689 -0.0086314 0
0.808229 -0.00894384 0
0.814053 -0.0092466 0
0.82016 -0.00953794 0
0.826551 -0.00981428 0
0.833223 -0.0100738 0
0.840177 -0.0103125 0
0.847408 -0.0105285 0
0.854913 -0.0107177 0
0.862686 -0.0108784 0
0.870721 -0.0110062 0
0.879011 -0.0111 0
0.887545 -0.0111555 0
0.896314 -0.011172 0
0.905306 -0.0111455 0
0.914507 -0.0110762 0
0.923902 -0.0109606 0
0.933476 -0.0107998 0
0.943211 -0.0105908 0
0.953089 -0.0103358 0
0.96309 -0.0100326 0
0.973194 -0.00968458 0
0.98338 -0.00929024 0
0.993625 -0.00885412 0
1.00391 -0.00837538 0
1.0142 -0.00785978 0
1.02449 -0.007307 0
1.03474 -0.00672389 0
1.04494 -0.0061105 0
1.05506 -0.00547462 0
1.06507 -0.0048165 0
1.07495 -0.00414468 0
1.08468 -0.00345934 0
1.09424 -0.00276963 0
1.10361 -0.00207542 0
1.11275 -0.00138627 0
1.12166 -0.000701504 0
1.1303 -3.09483e-05 0
1.13867 0.000626887 0
1.14675 0.00126203 0
1.15451 0.00187697 0
1.16194 0.00246171 0
1.16902 0.00301994 0
1.17574 0.00354169 0
1.18209 0.004032 0
1.18806 0.00448098 0
1.19363 0.00489511 0
1.1988 0.00526461 0
1.20355 0.00559748 0
1.20789 0.005884 0
1.21181 0.00613376 0
1.2153 0.00633701 0
1.21837 0.00650495 0
1.22102 0.00662774 0
1.22325 0.00671811 0
1.22506 0.00676601 0
1.22646 0.00678564 0
1.22746 0.00676662 0
1.22808 0.00672447 0
1.22832 0.00664835 0
1.22819 0.00655493 0
1.22772 0.00643278 0
1.22692 0.00629954 0
1.2258 0.00614304 0
1.2244 0.00598166 0
1.22272 0.00580243 0
1.2208 0.00562424 0
1.21865 0.00543325 0
1.21629 0.00524862 0
1.21375 0.00505568 0
1.21106 0.00487363 0
1.20822 0.00468701 0
1.20527 0.00451489 0
1.20223 0.00434113 0
1.19911 0.00418445 0
1.19594 0.00402824 0
1.19273 0.00389072 0
1.1895 0.003755 0
1.18626 0.00363868 0
1.18304 0.00352481 0
1.17983 0.00343023 0
1.17666 0.00333826 0
1.17353 0.00326478 0
1.17045 0.00319369 0
1.16742 0.00313977 0
1.16446 0.00308779 0
1.16157 0.00305129 0
1.15874 0.00301616 0
1.15599 0.00299457 0
1.15331 0.00297381 0
1.15071 0.00296448 0
1.14818 0.00295555 0
1.14573 0.00295588 0
1.14334 0.00295635 0
1.14103 0.0029639 0
1.13878 0.00297154 0
1.1366 0.00298412 0
1.13448 0.00299696 0
1.13242 0.00301267 0
1.13041 0.00302908 0
1.12846 0.00304634 0
1.12655 0.00306495 0
1.12469 0.00308251 0
1.12287 0.0031023 0
1.12108 0.00311918 0
1.11933 0.00313938 0
1.11761 0.0031549 0
1.11592 0.00317499 0
1.11426 0.00318869 0
1.11261 0.00320836 0
1.11099 0.00321999 0
1.10938 0.00323909 0
1.10778 0.00324857 0
1.1062 0.0032671 0
1.10463 0.00327446 0
1.10306 0.00329252 0
1.1015 0.0032979 0
1.09995 0.00331563 0
1.09839 0.00331923 0
1.09684 0.00333684 0
1.09528 0.0033389 0
1.09373 0.00335659 0
1.09217 0.00335736 0
1.09062 0.00337532 0
1.08905 0.00337505 0
1.08749 0.00339345 0
1.08591 0.00339234 0
1.08434 0.00341129 0
1.08275 0.00340953 0
1.08117 0.00342907 0
1.07957 0.00342678 0
1.07797 0.0034469 0
1.07637 0.00344411 0
1.07476 0.00346471 0
1.07314 0.0034614 0
1.07152 0.00348227 0
1.06989 0.00347831 0
1.06827 0.00349916 0
1.06664 0.00349434 0
1.06501 0.00351475 0
1.06337 0.00350875 0
1.06174 0.0035282 0
1.06011 0.00352059 0
1.05848 0.00353843 0
1.05686 0.00352866 0
1.05524 0.00354412 0
1.05363 0.00353153 0
1.05204 0.00354372 0
1.05045 0.00352751 0
1.04888 0.00353538 0
1.04732 0.00351465 0
1.04578 0.00351703 0
1.04427 0.00349075 0
1.04278 0.00348636 0
1.04132 0.00345341 0
1.03989 0.00344087 0
1.0385 0.00340009 0
1.03715 0.00337805 0
1.03584 0.00332841 0
1.03458 0.00329578 0
1.03337 0.00323681 0
1.03222 0.0031934 0
1.03113 0.00312623 0
1.0301 0.00307424 0
1.02916 0.00300434 0
1.02829 0.00295216 0
1.02756 0.00289596 0
1.02704 0.00286686 0
0.952653 -0.000172287 0
0.912841 -0.000386756 0
0.879762 -0.000632951 0
0.852544 -0.000902539 0
0.830334 -0.00118909 0
0.812346 -0.00148798 0
0.79788 -0.00179586 0
0.786337 -0.00211068 0
0.777207 -0.00243106 0
0.770068 -0.00275649 0
0.764571 -0.00308669 0
0.760433 -0.00342197 0
0.757423 -0.00376261 0
0.755357 -0.00410929 0
0.754086 -0.00446248 0
0.753492 -0.00482291 0
0.75348 -0.00519109 0
0.753978 -0.00556761 0
0.754927 -0.00595283 0
0.756281 -0.00634711 0
0.758006 -0.00675059 0
0.760074 -0.00716325 0
0.762465 -0.00758495 0
0.765165 -0.0080152 0
0.768161 -0.00845351 0
0.771448 -0.00889885 0
0.775019 -0.00935033 0
0.778873 -0.0098063 0
0.783007 -0.0102654 0
0.787422 -0.0107254 0
0.792119 -0.0111844 0
0.797098 -0.0116395 0
0.80236 -0.0120883 0
0.807907 -0.0125272 0
0.81374 -0.0129535 0
0.81986 -0.0133628 0
0.826265 -0.0137522 0
0.832956 -0.0141167 0
0.839931 -0.0144534 0
0.847186 -0.0147567 0
0.854718 -0.0150238 0
0.862521 -0.0152492 0
0.870589 -0.01543 0
0.878913 -0.0155609 0
0.887485 -0.0156398 0
0.896294 -0.0156616 0
0.905326 -0.0156251 0
0.914569 -0.0155258 0
0.924007 -0.0153637 0
0.933624 -0.0151351 0
0.943402 -0.0148414 0
0.953321 -0.01448 0
0.963363 -0.0140538 0
0.973505 -0.0135613 0
0.983727 -0.0130069 0
0.994006 -0.0123902 0
1.00432 -0.0117174 0
1.01464 -0.0109889 0
1.02495 -0.0102124 0
1.03522 -0.00938919 0
1.04543 -0.00852812 0
1.05555 -0.00763108 0
1.06556 -0.00670796 0
1.07544 -0.00576089 0
1.08516 -0.00480055 0
1.09471 -0.00382894 0
1.10405 -0.00285727 0
1.11317 -0.0018871 0
1.12204 -0.000929922 0
1.13065 1.35066e-05 0
1.13898 0.000931626 0
1.14701 0.00182475 0
1.15472 0.00268145 0
1.16209 0.00350338 0
1.16912 0.00427937 0
1.17578 0.00501261 0
1.18207 0.00569232 0
1.18797 0.00632338 0
1.19347 0.00689541 0
1.19857 0.00741513 0
1.20325 0.00787257 0
1.20752 0.00827632 0
1.21137 0.00861677 0
1.21479 0.00890441 0
1.21779 0.0091299 0
1.22037 0.00930558 0
1.22253 0.00942223 0
1.22428 0.00949395 0
1.22562 0.0095115 0
1.22657 0.00949055 0
1.22713 0.00942165 0
1.22731 0.00932185 0
1.22714 0.00918129 0
1.22662 0.00901814 0
1.22577 0.00882195 0
1.22462 0.00861174 0
1.22318 0.00837626 0
1.22147 0.00813513 0
1.21952 0.00787618 0
1.21734 0.00761931 0
1.21496 0.00735138 0
1.2124 0.0070923 0
1.20968 0.00682795 0
1.20683 0.00657803 0
1.20387 0.00632752 0
1.20081 0.00609568 0
1.19769 0.00586673 0
1.1945 0.00565934 0
1.19128 0.00545718 0
1.18805 0.00527818 0
1.1848 0.00510569 0
1.18157 0.00495682 0
1.17836 0.00481489 0
1.17518 0.00469603 0
1.17204 0.00458388 0
1.16896 0.00449349 0
1.16593 0.00440911 0
1.16296 0.00434459 0
1.16006 0.00428512 0
1.15723 0.00424321 0
1.15447 0.0042053 0
1.15179 0.00418242 0
1.14918 0.00416254 0
1.14665 0.00415505 0
1.14419 0.0041497 0
1.1418 0.00415411 0
1.13948 0.00416004 0
1.13723 0.00417313 0
1.13504 0.0041874 0
1.13292 0.00420636 0
1.13085 0.00422646 0
1.12884 0.00424889 0
1.12688 0.00427272 0
1.12497 0.00429667 0
1.1231 0.00432257 0
1.12128 0.00434652 0
1.11949 0.00437322 0
1.11774 0.00439603 0
1.11602 0.00442264 0
1.11432 0.00444354 0
1.11266 0.00446949 0
1.11101 0.00448799 0
1.10939 0.00451296 0
1.10777 0.00452884 0
1.10618 0.00455273 0
1.1046 0.00456597 0
1.10303 0.00458884 0
1.10146 0.00459956 0
1.0999 0.00462159 0
1.09835 0.00463002 0
1.0968 0.00465146 0
1.09525 0.00465791 0
1.0937 0.00467905 0
1.09215 0.00468386 0
1.0906 0.00470499 0
1.08904 0.00470848 0
1.08749 0.00472985 0
1.08593 0.00473234 0
1.08436 0.00475417 0
1.08279 0.0047559 0
1.08122 0.00477832 0
1.07964 0.00477947 0
1.07805 0.00480252 0
1.07646 0.0048032 0
1.07487 0.00482681 0
1.07326 0.004827 0
1.07166 0.00485098 0
1.07005 0.00485054 0
1.06843 0.00487457 0
1.06681 0.00487324 0
1.0652 0.00489685 0
1.06357 0.00489423 0
1.06196 0.00491678 0
1.06033 0.00491233 0
1.05872 0.00493304 0
1.0571 0.00492603 0
1.05549 0.00494395 0
1.05388 0.00493351 0
1.05229 0.0049475 0
1.0507 0.00493257 0
1.04913 0.00494132 0
1.04757 0.00492068 0
1.04603 0.00492268 0
1.0445 0.00489493 0
1.043 0.00488851 0
1.04153 0.0048521 0
1.04008 0.00483543 0
1.03866 0.00478872 0
1.03728 0.0047599 0
1.03594 0.00470128 0
1.03465 0.0046586 0
1.0334 0.00458685 0
1.0322 0.00452931 0
1.03106 0.00444456 0
1.02998 0.00437326 0
1.02897 0.00427929 0
1.02803 0.00420085 0
1.02718 0.00411099 0
1.02645 0.00404581 0
1.02594 0.00399695 0
0.952591 -0.000220896 0
0.91273 -0.000495842 0
0.879614 -0.000811458 0
0.852368 -0.00115701 0
0.830137 -0.00152436 0
0.812133 -0.00190745 0
0.797655 -0.00230217 0
0.786101 -0.00270571 0
0.776962 -0.00311655 0
0.769815 -0.00353378 0
0.76431 -0.00395734 0
0.760163 -0.00438737 0
0.757144 -0.00482453 0
0.755068 -0.00526939 0
0.753787 -0.00572288 0
0.753182 -0.0061857 0
0.75316 -0.00665871 0
0.753646 -0.00714252 0
0.754583 -0.00763776 0
0.755924 -0.0081448 0
0.757636 -0.00866386 0
0.759692 -0.00919498 0
0.762071 -0.00973787 0
0.764759 -0.0102921 0
0.767745 -0.0108568 0
0.771021 -0.011431 0
0.774585 -0.0120131 0
0.778431 -0.0126016 0
0.782561 -0.0131939 0
0.786973 -0.0137881 0
0.79167 -0.0143807 0
0.796651 -0.0149691 0
0.801919 -0.0155489 0
0.807475 -0.0161168 0
0.81332 -0.0166678 0
0.819455 -0.017198 0
0.825881 -0.0177014 0
0.832596 -0.018174 0
0.839598 -0.0186092 0
0.846885 -0.0190028 0
0.854453 -0.0193479 0
0.862296 -0.0196405 0
0.870408 -0.0198737 0
0.878779 -0.0200439 0
0.887401 -0.0201447 0
0.896262 -0.0201734 0
0.905349 -0.0201243 0
0.914648 -0.0199958 0
0.924143 -0.0197835 0
0.933817 -0.0194874 0
0.943652 -0.0191041 0
0.953627 -0.0186358 0
0.963722 -0.0180806 0
0.973915 -0.0174424 0
0.984185 -0.016721 0
0.994507 -0.0159225 0
1.00486 -0.0150478 0
1.01521 -0.0141051 0
1.02555 -0.0130967 0
1.03584 -0.0120323 0
1.04607 -0.0109152 0
1.0562 -0.00975641 0
1.06621 -0.00855999 0
1.07608 -0.00733805 0
1.08579 -0.00609466 0
1.09531 -0.0048427 0
1.10462 -0.00358598 0
1.11371 -0.00233772 0
1.12254 -0.00110105 0
1.1311 0.000110775 0
1.13937 0.00129572 0
1.14734 0.00244076 0
1.15498 0.00354529 0
1.16228 0.00459675 0
1.16923 0.00559624 0
1.17581 0.00653182 0
1.18201 0.00740652 0
1.18782 0.00820913 0
1.19323 0.00894478 0
1.19824 0.00960299 0
1.20283 0.0101911 0
1.207 0.0106993 0
1.21076 0.0111372 0
1.21409 0.0114957 0
1.217 0.0117864 0
1.21949 0.0120007 0
1.22156 0.0121525 0
1.22322 0.0122334 0
1.22448 0.012259 0
1.22535 0.0122211 0
1.22583 0.0121369 0
1.22595 0.0119982 0
1.22571 0.0118234 0
1.22513 0.0116038 0
1.22423 0.011359 0
1.22302 0.0110794 0
1.22153 0.0107854 0
1.21978 0.0104666 0
1.21779 0.0101435 0
1.21557 0.00980473 0
1.21316 0.00947093 0
1.21058 0.00912951 0
1.20784 0.00880085 0
1.20496 0.00847127 0
1.20198 0.00816062 0
1.19891 0.00785423 0
1.19576 0.00757125 0
1.19257 0.00729618 0
1.18934 0.00704734 0
1.18609 0.00680862 0
1.18284 0.00659743 0
1.1796 0.00639735 0
1.17638 0.00622475 0
1.17319 0.00606325 0
1.17005 0.00592811 0
1.16696 0.00580331 0
1.16392 0.00570294 0
1.16095 0.00561167 0
1.15804 0.00554228 0
1.15521 0.00548052 0
1.15244 0.00543776 0
1.14975 0.00540108 0
1.14714 0.00538033 0
1.1446 0.00536423 0
1.14213 0.00536094 0
1.13973 0.0053611 0
1.13741 0.00537102 0