# vtk DataFile Version 3.0
Flow field at step 900
ASCII
DATASET STRUCTURED_GRID
DIMENSIONS 200 100 1
POINTS 20000 float
0.005 0.005 0
0.015 0.005 0
0.025 0.005 0
0.035 0.005 0
0.045 0.005 0
0.055 0.005 0
0.065 0.005 0
0.075 0.005 0
0.085 0.005 0
0.095 0.005 0
0.105 0.005 0
0.115 0.005 0
0.125 0.005 0
0.135 0.005 0
0.145 0.005 0
0.155 0.005 0
0.165 0.005 0
0.175 0.005 0
0.185 0.005 0
0.195 0.005 0
0.205 0.005 0
0.215 0.005 0
0.225 0.005 0
0.235 0.005 0
0.245 0.005 0
0.255 0.005 0
0.265 0.005 0
0.275 0.005 0
0.285 0.005 0
0.295 0.005 0
0.305 0.005 0
0.315 0.005 0
0.325 0.005 0
0.335 0.005 0
0.345 0.005 0
0.355 0.005 0
0.365 0.005 0
0.375 0.005 0
0.385 0.005 0
0.395 0.005 0
0.405 0.005 0
0.415 0.005 0
0.425 0.005 0
0.435 0.005 0
0.445 0.005 0
0.455 0.005 0
0.465 0.005 0
0.475 0.005 0
0.485 0.005 0
0.495 0.005 0
0.505 0.005 0
0.515 0.005 0
0.525 0.005 0
0.535 0.005 0
0.545 0.005 0
0.555 0.005 0
0.565 0.005 0
0.575 0.005 0
0.585 0.005 0
0.595 0.005 0
0.605 0.005 0
0.615 0.005 0
0.625 0.005 0
0.635 0.005 0
0.645 0.005 0
0.655 0.005 0
0.665 0.005 0
0.675 0.005 0
0.685 0.005 0
0.695 0.005 0
0.705 0.005 0
0.715 0.005 0
0.725 0.005 0
0.735 0.005 0
0.745 0.005 0
0.755 0.005 0
0.765 0.005 0
0.775 0.005 0
0.785 0.005 0
0.795 0.005 0
0.805 0.005 0
0.815 0.005 0
0.825 0.005 0
0.835 0.005 0
0.845 0.005 0
0.855 0.005 0
0.865 0.005 0
0.875 0.005 0
0.885 0.005 0
0.895 0.005 0
0.905 0.005 0
0.915 0.005 0
0.925 0.005 0
0.935 0.005 0
0.945 0.005 0
0.955 0.005 0
0.965 0.005 0
0.975 0.005 0
0.985 0.005 0
0.995 0.005 0
1.005 0.005 0
1.015 0.005 0
1.025 0.005 0
1.035 0.005 0
1.045 0.005 0
1.055 0.005 0
1.065 0.005 0
1.075 0.005 0
1.085 0.005 0
1.095 0.005 0
1.105 0.005 0
1.115 0.005 0
1.125 0.005 0
1.135 0.005 0
1.145 0.005 0
1.155 0.005 0
1.165 0.005 0
1.175 0.005 0
1.185 0.005 0
1.195 0.005 0
1.205 0.005 0
1.215 0.005 0
1.225 0.005 0
1.235 0.005 0
1.245 0.005 0
1.255 0.005 0
1.265 0.005 0
1.275 0.005 0
1.285 0.005 0
1.295 0.005 0
1.305 0.005 0
1.315 0.005 0
1.325 0.005 0
1.335 0.005 0
1.345 0.005 0
1.355 0.005 0
1.365 0.005 0
1.375 0.005 0
1.385 0.005 0
1.395 0.005 0
1.405 0.005 0
1.415 0.005 0
1.425 0.005 0
1.435 0.005 0
1.445 0.005 0
1.455 0.005 0
1.465 0.005 0
1.475 0.005 0
1.485 0.005 0
1.495 0.005 0
1.505 0.005 0
1.515 0.005 0
1.525 0.005 0
1.535 0.005 0
1.545 0.005 0
1.555 0.005 0
1.565 0.005 0
1.575 0.005 0
1.585 0.005 0
1.595 0.005 0
1.605 0.005 0
1.615 0.005 0
1.625 0.005 0
1.635 0.005 0
1.645 0.005 0
1.655 0.005 0
1.665 0.005 0
1.675 0.005 0
1.685 0.005 0
1.695 0.005 0
1.705 0.005 0
1.715 0.005 0
1.725 0.005 0
1.735 0.005 0
1.745 0.005 0
1.755 0.005 0
1.765 0.005 0
1.775 0.005 0
1.785 0.005 0
1.795 0.005 0
1.805 0.005 0
1.815 0.005 0
1.825 0.005 0
1.835 0.005 0
1.845 0.005 0
1.855 0.005 0
1.865 0.005 0
1.875 0.005 0
1.885 0.005 0
1.895 0.005 0
1.905 0.005 0
1.915 0.005 0
1.925 0.005 0
1.935 0.005 0
1.945 0.005 0
1.955 0.005 0
1.965 0.005 0
1.975 0.005 0
1.985 0.005 0
1.995 0.005 0
0.005 0.015 0
0.015 0.015 0
0.025 0.015 0
0.035 0.015 0
0.045 0.015 0
0.055 0.015 0
0.065 0.015 0
0.075 0.015 0
0.085 0.015 0
0.095 0.015 0
0.105 0.015 0
0.115 0.015 0
0.125 0.015 0
0.135 0.015 0
0.145 0.015 0
0.155 0.015 0
0.165 0.015 0
0.175 0.015 0
0.185 0.015 0
0.195 0.015 0
0.205 0.015 0
0.215 0.015 0
0.225 0.015 0
0.235 0.015 0
0.245 0.015 0
0.255 0.015 0
0.265 0.015 0
0.275 0.015 0
0.285 0.015 0
0.295 0.015 0
0.305 0.015 0
0.315 0.015 0
0.325 0.015 0
0.335 0.015 0
0.345 0.015 0
0.355 0.015 0
0.365 0.015 0
0.375 0.015 0
0.385 0.015 0
0.395 0.015 0
0.405 0.015 0
0.415 0.015 0
0.425 0.015 0
0.435 0.015 0
0.445 0.015 0
0.455 0.015 0
0.465 0.015 0
0.475 0.015 0
0.485 0.015 0
0.495 0.015 0
0.505 0.015 0
0.515 0.015 0
0.525 0.015 0
0.535 0.015 0
0.545 0.015 0
0.555 0.015 0
0.565 0.015 0
0.575 0.015 0
0.585 0.015 0
0.595 0.015 0
0.605 0.015 0
0.615 0.015 0
0.625 0.015 0
0.635 0.015 0
0.645 0.015 0
0.655 0.015 0
0.665 0.015 0
0.675 0.015 0
0.685 0.015 0
0.695 0.015 0
0.705 0.015 0
0.715 0.015 0
0.725 0.015 0
0.735 0.015 0
0.745 0.015 0
0.755 0.015 0
0.765 0.015 0
0.775 0.015 0
0.785 0.015 0
0.795 0.015 0
0.805 0.015 0
0.815 0.015 0
0.825 0.015 0
0.835 0.015 0
0.845 0.015 0
0.855 0.015 0
0.865 0.015 0
0.875 0.015 0
0.885 0.015 0
0.895 0.015 0
0.905 0.015 0
0.915 0.015 0
0.925 0.015 0
0.935 0.015 0
0.945 0.015 0
0.955 0.015 0
0.965 0.015 0
0.975 0.015 0
0.985 0.015 0
0.995 0.015 0
1.005 0.015 0
1.015 0.015 0
1.025 0.015 0
1.035 0.015 0
1.045 0.015 0
1.055 0.015 0
1.065 0.015 0
1.075 0.015 0
1.085 0.015 0
1.095 0.015 0
1.105 0.015 0
1.115 0.015 0
1.125 0.015 0
1.135 0.015 0
1.145 0.015 0
1.155 0.015 0
1.165 0.015 0
1.175 0.015 0
1.185 0.015 0
1.195 0.015 0
1.205 0.015 0
1.215 0.015 0
1.225 0.015 0
1.235 0.015 0
1.245 0.015 0
1.255 0.015 0
1.265 0.015 0
1.275 0.015 0
1.285 0.015 0
1.295 0.015 0
1.305 0.015 0
1.315 0.015 0
1.325 0.015 0
1.335 0.015 0
1.345 0.015 0
1.355 0.015 0
1.365 0.015 0
1.375 0.015 0
1.385 0.015 0
1.395 0.015 0
1.405 0.015 0
1.415 0.015 0
1.425 0.015 0
1.435 0.015 0
1.445 0.015 0
1.455 0.015 0
1.465 0.015 0
1.475 0.015 0
1.485 0.015 0
1.495 0.015 0
1.505 0.015 0
1.515 0.015 0
1.525 0.015 0
1.535 0.015 0
1.545 0.015 0
1.555 0.015 0
1.565 0.015 0
1.575 0.015 0
1.585 0.015 0
1.595 0.015 0
1.605 0.015 0
1.615 0.015 0
1.625 0.015 0
1.635 0.015 0
1.645 0.015 0
1.655 0.015 0
1.665 0.015 0
1.675 0.015 0
1.685 0.015 0
1.695 0.015 0
1.705 0.015 0
1.715 0.015 0
1.725 0.015 0
1.735 0.015 0
1.745 0.015 0
1.755 0.015 0
1.765 0.015 0
1.775 0.015 0
1.785 0.015 0
1.795 0.015 0
1.805 0.015 0
1.815 0.015 0
1.825 0.015 0
1.835 0.015 0
1.845 0.015 0
1.855 0.015 0
1.865 0.015 0
1.875 0.015 0
1.885 0.015 0
1.895 0.015 0
1.905 0.015 0
1.915 0.015 0
1.925 0.015 0
1.935 0.015 0
1.945 0.015 0
1.955 0.015 0
1.965 0.015 0
1.975 0.015 0
1.985 0.015 0
1.995 0.015 0
0.005 0.025 0
0.015 0.025 0
0.025 0.025 0
0.035 0.025 0
0.045 0.025 0
0.055 0.025 0
0.065 0.025 0
0.075 0.025 0
0.085 0.025 0
0.095 0.025 0
0.105 0.025 0
0.115 0.025 0
0.125 0.025 0
0.135 0.025 0
0.145 0.025 0
0.155 0.025 0
0.165 0.025 0
0.175 0.025 0
0.185 0.025 0
0.195 0.025 0
0.205 0.025 0
0.215 0.025 0
0.225 0.025 0
0.235 0.025 0
0.245 0.025 0
0.255 0.025 0
0.265 0.025 0
0.275 0.025 0
0.285 0.025 0
0.295 0.025 0
0.305 0.025 0
0.315 0.025 0
0.325 0.025 0
0.335 0.025 0
0.345 0.025 0
0.355 0.025 0
0.365 0.025 0
0.375 0.025 0
0.385 0.025 0
0.395 0.025 0
0.405 0.025 0
0.415 0.025 0
0.425 0.025 0
0.435 0.025 0
0.445 0.025 0
0.455 0.025 0
0.465 0.025 0
0.475 0.025 0
0.485 0.025 0
0.495 0.025 0
0.505 0.025 0
0.515 0.025 0
0.525 0.025 0
0.535 0.025 0
0.545 0.025 0
0.555 0.025 0
0.565 0.025 0
0.575 0.025 0
0.585 0.025 0
0.595 0.025 0
0.605 0.025 0
0.615 0.025 0
0.625 0.025 0
0.635 0.025 0
0.645 0.025 0
0.655 0.025 0
0.665 0.025 0
0.675 0.025 0
0.685 0.025 0
0.695 0.025 0
0.705 0.025 0
0.715 0.025 0
0.725 0.025 0
0.735 0.025 0
0.745 0.025 0
0.755 0.025 0
0.765 0.025 0
0.775 0.025 0
0.785 0.025 0
0.795 0.025 0
0.805 0.025 0
0.815 0.025 0
0.825 0.025 0
0.835 0.025 0
0.845 0.025 0
0.855 0.025 0
0.865 0.025 0
0.875 0.025 0
0.885 0.025 0
0.895 0.025 0
0.905 0.025 0
0.915 0.025 0
0.925 0.025 0
0.935 0.025 0
0.945 0.025 0
0.955 0.025 0
0.965 0.025 0
0.975 0.025 0
0.985 0.025 0
0.995 0.025 0
1.005 0.025 0
1.015 0.025 0
1.025 0.025 0
1.035 0.025 0
1.045 0.025 0
1.055 0.025 0
1.065 0.025 0
1.075 0.025 0
1.085 0.025 0
1.095 0.025 0
1.105 0.025 0
1.115 0.025 0
1.125 0.025 0
1.135 0.025 0
1.145 0.025 0
1.155 0.025 0
1.165 0.025 0
1.175 0.025 0
1.185 0.025 0
1.195 0.025 0
1.205 0.025 0
1.215 0.025 0
1.225 0.025 0
1.235 0.025 0
1.245 0.025 0
1.255 0.025 0
1.265 0.025 0
1.275 0.025 0
1.285 0.025 0
1.295 0.025 0
1.305 0.025 0
1.315 0.025 0
1.325 0.025 0
1.335 0.025 0
1.345 0.025 0
1.355 0.025 0
1.365 0.025 0
1.375 0.025 0
1.385 0.025 0
1.395 0.025 0
1.405 0.025 0
1.415 0.025 0
1.425 0.025 0
1.435 0.025 0
1.445 0.025 0
1.455 0.025 0
1.465 0.025 0
1.475 0.025 0
1.485 0.025 0
1.495 0.025 0
1.505 0.025 0
1.515 0.025 0
1.525 0.025 0
1.535 0.025 0
1.545 0.025 0
1.555 0.025 0
1.565 0.025 0
1.575 0.025 0
1.585 0.025 0
1.595 0.025 0
1.605 0.025 0
1.615 0.025 0
1.625 0.025 0
1.635 0.025 0
1.645 0.025 0
1.655 0.025 0
1.665 0.025 0
1.675 0.025 0
1.685 0.025 0
1.695 0.025 0
1.705 0.025 0
1.715 0.025 0
1.725 0.025 0
1.735 0.025 0
1.745 0.025 0
1.755 0.025 0
1.765 0.025 0
1.775 0.025 0
1.785 0.025 0
1.795 0.025 0
1.805 0.025 0
1.815 0.025 0
1.825 0.025 0
1.835 0.025 0
1.845 0.025 0
1.855 0.025 0
1.865 0.025 0
1.875 0.025 0
1.885 0.025 0
1.895 0.025 0
1.905 0.025 0
1.915 0.025 0
1.925 0.025 0
1.935 0.025 0
1.945 0.025 0
1.955 0.025 0
1.965 0.025 0
1.975 0.025 0
1.985 0.025 0
1.995 0.025 0
0.005 0.035 0
0.015 0.035 0
0.025 0.035 0
0.035 0.035 0
0.045 0.035 0
0.055 0.035 0
0.065 0.035 0
0.075 0.035 0
0.085 0.035 0
0.095 0.035 0
0.105 0.035 0
0.115 0.035 0
0.125 0.035 0
0.135 0.035 0
0.145 0.035 0
0.155 0.035 0
0.165 0.035 0
0.175 0.035 0
0.185 0.035 0
0.195 0.035 0
0.205 0.035 0
0.215 0.035 0
0.225 0.035 0
0.235 0.035 0
0.245 0.035 0
0.255 0.035 0
0.265 0.035 0
0.275 0.035 0
0.285 0.035 0
0.295 0.035 0
0.305 0.035 0
0.315 0.035 0
0.325 0.035 0
0.335 0.035 0
0.345 0.035 0
0.355 0.035 0
0.365 0.035 0
0.375 0.035 0
0.385 0.035 0
0.395 0.035 0
0.405 0.035 0
0.415 0.035 0
0.425 0.035 0
0.435 0.035 0
0.445 0.035 0
0.455 0.035 0
0.465 0.035 0
0.475 0.035 0
0.485 0.035 0
0.495 0.035 0
0.505 0.035 0
0.515 0.035 0
0.525 0.035 0
0.535 0.035 0
0.545 0.035 0
0.555 0.035 0
0.565 0.035 0
0.575 0.035 0
0.585 0.035 0
0.595 0.035 0
0.605 0.035 0
0.615 0.035 0
0.625 0.035 0
0.635 0.035 0
0.645 0.035 0
0.655 0.035 0
0.665 0.035 0
0.675 0.035 0
0.685 0.035 0
0.695 0.035 0
0.705 0.035 0
0.715 0.035 0
0.725 0.035 0
0.735 0.035 0
0.745 0.035 0
0.755 0.035 0
0.765 0.035 0
0.775 0.035 0
0.785 0.035 0
0.795 0.035 0
0.805 0.035 0
0.815 0.035 0
0.825 0.035 0
0.835 0.035 0
0.845 0.035 0
0.855 0.035 0
0.865 0.035 0
0.875 0.035 0
0.885 0.035 0
0.895 0.035 0
0.905 0.035 0
0.915 0.035 0
0.925 0.035 0
0.935 0.035 0
0.945 0.035 0
0.955 0.035 0
0.965 0.035 0
0.975 0.035 0
0.985 0.035 0
0.995 0.035 0
1.005 0.035 0
1.015 0.035 0
1.025 0.035 0
1.035 0.035 0
1.045 0.035 0
[...]
POINT_DATA 20000
VECTORS velocity float
0.975377 -2.31461e-05 0
0.953578 -5.33171e-05 0
0.934221 -8.86277e-05 0
0.916969 -0.000129419 0
0.901528 -0.00017269 0
0.887648 -0.000220493 0
0.875122 -0.000268471 0
0.863783 -0.000320585 0
0.853496 -0.000370987 0
0.844151 -0.000425581 0
0.835667 -0.000476991 0
0.827974 -0.000532966 0
0.821024 -0.000584661 0
0.814776 -0.000641489 0
0.809198 -0.000693261 0
0.804265 -0.000750806 0
0.799957 -0.000802777 0
0.796257 -0.000861133 0
0.793149 -0.000913597 0
0.79062 -0.000972942 0
0.788657 -0.00102622 0
0.787249 -0.00108669 0
0.786384 -0.00114101 0
0.786051 -0.00120261 0
0.786239 -0.00125802 0
0.786937 -0.00132052 0
0.788133 -0.00137678 0
0.789819 -0.00143969 0
0.791983 -0.00149627 0
0.794615 -0.00155875 0
0.797706 -0.00161477 0
0.801245 -0.00167565 0
0.805222 -0.00172984 0
0.809628 -0.00178762 0
0.814453 -0.00183839 0
0.819687 -0.00189124 0
0.825319 -0.00193669 0
0.83134 -0.00198254 0
0.837737 -0.00202053 0
0.8445 -0.00205713 0
0.851616 -0.00208542 0
0.859073 -0.00211047 0
0.866857 -0.0021268 0
0.874954 -0.0021381 0
0.883348 -0.00214038 0
0.892023 -0.00213595 0
0.900963 -0.0021224 0
0.91015 -0.00210068 0
0.919563 -0.00207 0
0.929185 -0.00202993 0
0.938994 -0.0019814 0
0.948968 -0.0019226 0
0.959086 -0.0018562 0
0.969325 -0.00177901 0
0.979661 -0.00169546 0
0.99007 -0.00160095 0
1.00053 -0.00150173 0
1.01101 -0.00139169 0
1.0215 -0.00127898 0
1.03195 -0.00115584 0
1.04236 -0.0010324 0
1.0527 -0.000899146 0
1.06293 -0.000768232 0
1.07304 -0.000628203 0
1.083 -0.000493378 0
1.0928 -0.000350153 0
1.1024 -0.000215137 0
1.11178 -7.23485e-05 0
1.12092 5.91496e-05 0
1.12981 0.000197975 0
1.13842 0.000322414 0
1.14673 0.000454003 0
1.15472 0.000568152 0
1.16239 0.000689613 0
1.1697 0.000790668 0
1.17664 0.000899601 0
1.18321 0.000985283 0
1.18939 0.00107986 0
1.19516 0.00114849 0
1.20052 0.00122751 0
1.20546 0.00127805 0
1.20997 0.00134097 0
1.21405 0.00137307 0
1.21768 0.00142 0
1.22088 0.00143395 0
1.22364 0.00146565 0
1.22595 0.00146237 0
1.22783 0.00148019 0
1.22928 0.00146117 0
1.23031 0.00146693 0
1.23092 0.00143416 0
1.23112 0.0014301 0
1.23093 0.00138591 0
1.23037 0.00137452 0
1.22944 0.00132149 0
1.22816 0.00130539 0
1.22655 0.0012462 0
1.22464 0.00122801 0
1.22243 0.00116529 0
1.21995 0.00114744 0
1.21723 0.00108365 0
1.21427 0.00106833 0
1.21111 0.00100566 0
1.20777 0.000994672 0
1.20425 0.000934953 0
1.2006 0.000929701 0
1.19681 0.000874362 0
1.19292 0.000875789 0
1.18894 0.000825847 0
1.18488 0.000834462 0
1.18076 0.000790533 0
1.1766 0.000806441 0
1.1724 0.000768781 0
1.16818 0.000791737 0
1.16395 0.00076029 0
1.15971 0.000789761 0
1.15548 0.000764223 0
1.15125 0.000799456 0
1.14704 0.000779332 0
1.14286 0.000819422 0
1.13869 0.000804085 0
1.13455 0.000848033 0
1.13044 0.00083677 0
1.12636 0.000883535 0
1.12231 0.000875591 0
1.1183 0.000924134 0
1.11431 0.000918744 0
1.11036 0.000968056 0
1.10644 0.000964466 0
1.10254 0.0010136 0
1.09868 0.00101109 0
1.09486 0.00105918 0
1.09106 0.00105706 0
1.08729 0.00110332 0
1.08355 0.00110096 0
1.07983 0.00114472 0
1.07615 0.00114153 0
1.0725 0.00118221 0
1.06887 0.00117768 0
1.06528 0.00121481 0
1.06171 0.00120846 0
1.05818 0.00124169 0
1.05468 0.00123312 0
1.05121 0.00126219 0
1.04778 0.00125106 0
1.04438 0.00127582 0
1.04101 0.00126184 0
1.03769 0.00128224 0
1.0344 0.0012652 0
1.03116 0.00128129 0
1.02796 0.00126104 0
1.0248 0.00127293 0
1.02169 0.00124939 0
1.01863 0.00125728 0
1.01562 0.00123045 0
1.01266 0.0012346 0
1.00975 0.00120451 0
1.00691 0.00120523 0
1.00411 0.00117201 0
1.00138 0.00116965 0
0.998705 0.00113346 0
0.996093 0.0011284 0
0.993543 0.00108945 0
0.991056 0.00108209 0
0.988634 0.00104063 0
0.986278 0.00103136 0
0.983987 0.0009877 0
0.981763 0.000976901 0
0.979606 0.000931356 0
0.977515 0.000919396 0
0.975492 0.000872302 0
0.973536 0.00085952 0
0.971646 0.000811223 0
0.969822 0.000797924 0
0.968064 0.000748771 0
0.96637 0.00073522 0
0.96474 0.00068555 0
0.963172 0.000671971 0
0.961666 0.000622116 0
0.960219 0.000608688 0
0.95883 0.000558961 0
0.957497 0.000545819 0
0.956219 0.00049652 0
0.954994 0.000483754 0
0.95382 0.000435163 0
0.952694 0.000422827 0
0.951616 0.000375206 0
0.950582 0.000363317 0
0.949593 0.000316922 0
0.948644 0.000305479 0
0.947737 0.000260585 0
0.946868 0.000249591 0
0.946039 0.000206598 0
0.945247 0.000196129 0
0.944495 0.000155858 0
0.943782 0.000146217 0
0.943114 0.00011076 0
0.942498 0.00010284 0
0.941963 7.78035e-05 0
0.941586 7.3951e-05 0
0.975362 -6.96123e-05 0
0.953551 -0.000159332 0
0.934184 -0.000266536 0
0.916924 -0.00038676 0
0.901476 -0.000519313 0
0.887591 -0.000658952 0
0.875062 -0.000807294 0
0.863721 -0.00095814 0
0.853432 -0.00111549 0
0.844087 -0.00127206 0
0.8356 -0.00143413 0
0.827908 -0.00159324 0
0.820957 -0.00175773 0
0.814709 -0.00191798 0
0.80913 -0.00208406 0
0.804197 -0.00224527 0
0.799888 -0.00241307 0
0.796186 -0.00257579 0
0.793077 -0.00274592 0
0.790547 -0.00291099 0
0.788582 -0.00308411 0
0.787173 -0.00325224 0
0.786306 -0.00342875 0
0.78597 -0.00360023 0
0.786156 -0.00377996 0
0.786852 -0.00395441 0
0.788047 -0.00413643 0
0.789731 -0.00431259 0
0.791894 -0.00449503 0
0.794525 -0.00467064 0
0.797615 -0.00485062 0
0.801155 -0.00502236 0
0.805133 -0.00519593 0
0.809541 -0.00535942 0
0.814369 -0.00552162 0
0.819606 -0.00567151 0
0.825242 -0.0058165 0
0.831268 -0.00594664 0
0.837671 -0.00606793 0
0.844441 -0.00617163 0
0.851566 -0.00626236 0
0.859031 -0.00633275 0
0.866825 -0.0063861 0
0.874932 -0.00641658 0
0.883338 -0.00642622 0
0.892025 -0.00641088 0
0.900977 -0.00637143 0
0.910176 -0.00630556 0
0.919603 -0.00621305 0
0.929238 -0.00609356 0
0.939059 -0.00594583 0
0.949046 -0.00577158 0
0.959176 -0.00556854 0
0.969426 -0.00534058 0
0.979773 -0.0050844 0
0.990191 -0.00480604 0
1.00066 -0.00450111 0
1.01115 -0.00417784 0
1.02164 -0.00383062 0
1.0321 -0.00346991 0
1.04251 -0.00308865 0
1.05284 -0.00269955 0
1.06308 -0.00229391 0
1.07319 -0.00188668 0
1.08315 -0.00146722 0
1.09293 -0.00105278 0
1.10252 -0.000630507 0
1.1119 -0.000219993 0
1.12103 0.000194173 0
1.1299 0.000589936 0
1.1385 0.000985611 0
1.14679 0.00135654 0
1.15477 0.0017243 0
1.16241 0.00206146 0
1.1697 0.0023932 0
1.17663 0.00268909 0
1.18317 0.00297831 0
1.18932 0.00322716 0
1.19508 0.00346917 0
1.20041 0.0036671 0
1.20533 0.00385915 0
1.20981 0.00400425 0
1.21386 0.00414559 0
1.21748 0.00423795 0
1.22065 0.0043298 0
1.22338 0.00437144 0
1.22568 0.00441686 0
1.22754 0.00441159 0
1.22897 0.00441531 0
1.22997 0.00436847 0
1.23056 0.00433657 0
1.23075 0.00425476 0
1.23055 0.00419434 0
1.22996 0.00408503 0
1.22902 0.00400382 0
1.22773 0.00387489 0
1.22611 0.00378083 0
1.22418 0.00364022 0
1.22197 0.00354101 0
1.21948 0.00339628 0
1.21675 0.003299 0
1.21379 0.00315697 0
1.21063 0.0030678 0
1.20728 0.0029343 0
1.20377 0.00285827 0
1.20011 0.00273793 0
1.19632 0.00267878 0
1.19243 0.00257498 0
1.18845 0.00253516 0
1.18439 0.00245003 0
1.18028 0.00243075 0
1.17611 0.00236522 0
1.17192 0.00236658 0
1.1677 0.00232061 0
1.16347 0.00234175 0
1.15924 0.00231441 0
1.15501 0.00235373 0
1.15078 0.00234347 0
1.14658 0.00239881 0
1.1424 0.00240358 0
1.13824 0.00247239 0
1.1341 0.00248986 0
1.12999 0.00256939 0
1.12592 0.00259704 0
1.12187 0.00268445 0
1.11786 0.00271973 0
1.11388 0.00281219 0
1.10993 0.00285258 0
1.10601 0.00294741 0
1.10212 0.00299046 0
1.09827 0.00308512 0
1.09444 0.00312858 0
1.09065 0.00322073 0
1.08688 0.0032625 0
1.08315 0.00335005 0
1.07944 0.00338825 0
1.07577 0.00346937 0
1.07212 0.00350231 0
1.0685 0.00357544 0
1.06491 0.00360167 0
1.06135 0.00366552 0
1.05782 0.0036838 0
1.05433 0.00373735 0
1.05087 0.00374669 0
1.04744 0.0037892 0
1.04404 0.00378882 0
1.04069 0.00381981 0
1.03737 0.00380917 0
1.03409 0.00382841 0
1.03085 0.00380719 0
1.02766 0.00381472 0
1.02451 0.0037828 0
1.02141 0.00377885 0
1.01836 0.00373635 0
1.01535 0.00372136 0
1.0124 0.00366858 0
1.0095 0.00364318 0
1.00666 0.00358058 0
1.00388 0.00354555 0
1.00115 0.00347377 0
0.998483 0.00343 0
0.995878 0.00334979 0
0.993334 0.00329827 0
0.990855 0.0032105 0
0.98844 0.00315229 0
0.98609 0.00305791 0
0.983806 0.00299406 0
0.981589 0.00289408 0
0.979438 0.00282567 0
0.977354 0.0027211 0
0.975336 0.00264918 0
0.973386 0.00254104 0
0.971502 0.0024666 0
0.969684 0.00235589 0
0.967931 0.00227985 0
0.966242 0.00216752 0
0.964617 0.0020907 0
0.963054 0.00197765 0
0.961552 0.00190078 0
0.96011 0.00178783 0
0.958725 0.00171154 0
0.957397 0.00159944 0
0.956122 0.00152425 0
0.954902 0.00141367 0
0.95373 0.00134 0
0.952609 0.00123153 0
0.951533 0.00115973 0
0.950503 0.00105389 0
0.949516 0.000984214 0
0.948571 0.000881539 0
0.947665 0.000814248 0
0.9468 0.000715367 0
0.945972 0.00065092 0
0.945184 0.000557009 0
0.944433 0.000496548 0
0.943723 0.000410489 0
0.943055 0.000357164 0
0.942442 0.000286688 0
0.941908 0.000249027 0
0.941532 0.000214687 0
0.975333 -0.000115713 0
0.953496 -0.000265515 0
0.93411 -0.000443032 0
0.916834 -0.000644471 0
0.901373 -0.000863182 0
0.887479 -0.00109799 0
0.874943 -0.00134187 0
0.863596 -0.00159648 0
0.853304 -0.00185424 0
0.843956 -0.00211955 0
0.835469 -0.00238409 0
0.827775 -0.00265477 0
0.820824 -0.00292238 0
0.814574 -0.00319598 0
0.808995 -0.00346546 0
0.80406 -0.00374157 0
0.799749 -0.0040133 0
0.796045 -0.00429269 0
0.792933 -0.00456788 0
0.7904 -0.00485174 0
0.788432 -0.00513171 0
0.787018 -0.00542106 0
0.786148 -0.00570668 0
0.785808 -0.00600182 0
0.78599 -0.006293 0
0.786682 -0.0065931 0
0.787873 -0.00688847 0
0.789554 -0.00719125 0
0.791715 -0.00748785 0
0.794344 -0.0077894 0
0.797434 -0.00808253 0
0.800974 -0.00837716 0
0.804954 -0.00866034 0
0.809366 -0.0089406 0
0.814198 -0.00920561 0
0.819442 -0.00946243 0
0.825087 -0.00969956 0
0.831123 -0.00992255 0
0.837539 -0.0101209 0
0.844323 -0.0102988 0
0.851463 -0.010447 0
0.858947 -0.0105682 0
0.86676 -0.0106548 0
0.874889 -0.0107082 0
0.883316 -0.0107225 0
0.892028 -0.0106982 0
0.901004 -0.0106313 0
0.910229 -0.0105213 0
0.919681 -0.0103665 0
0.929342 -0.0101657 0
0.939189 -0.00991942 0
0.949201 -0.00962592 0
0.959354 -0.00928811 0
0.969627 -0.00890366 0
0.979995 -0.00847803 0
0.990433 -0.00800823 0
1.00092 -0.00750225 0
1.01142 -0.00695632 0
1.02192 -0.00638097 0
1.03239 -0.00577141 0
1.04281 -0.00514066 0
1.05314 -0.00448264 0
1.06337 -0.00381279 0
1.07348 -0.00312341 0
1.08343 -0.00243232 0
1.0932 -0.00172981 0
1.10277 -0.00103603 0
1.11213 -0.000338855 0
1.12124 0.000339194 0
1.13008 0.00101309 0
1.13865 0.00165791 0
1.14691 0.00229189 0
1.15485 0.00288762 0
1.16245 0.00346699 0
1.1697 0.00399996 0
1.17658 0.00451252 0
1.18308 0.00497177 0
1.18919 0.00540819 0
1.1949 0.00578579 0
1.20019 0.00613991 0
1.20505 0.00643119 0
1.20949 0.00670016 0
1.21349 0.00690379 0
1.21706 0.00708809 0
1.22018 0.00720602 0
1.22287 0.00730931 0
1.22512 0.00734659 0
1.22694 0.00737546 0
1.22832 0.0073399 0
1.22929 0.00730346 0
1.22984 0.00720517 0
1.23 0.00711452 0
1.22976 0.00696531 0
1.22915 0.0068329 0
1.22817 0.00664567 0
1.22686 0.00648462 0
1.22522 0.00627259 0
1.22328 0.00609599 0
1.22104 0.00587206 0
1.21854 0.00569228 0
1.2158 0.00546838 0
1.21283 0.00529651 0
1.20966 0.00508309 0
1.2063 0.00492847 0
1.20278 0.00473412 0
1.19913 0.0046041 0
1.19534 0.00443535 0
1.19145 0.0043351 0
1.18747 0.00419637 0
1.18341 0.00412899 0
1.1793 0.00402266 0
1.17514 0.00398928 0
1.17095 0.00391592 0
1.16674 0.00391596 0
1.16251 0.00387461 0
1.15829 0.00390609 0
1.15406 0.00389453 0
1.14985 0.00395441 0
1.14565 0.00396949 0
1.14147 0.00405393 0
1.13732 0.00409189 0
1.13319 0.00419658 0
1.12909 0.00425326 0
1.12503 0.00437363 0
1.12099 0.00444472 0
1.11698 0.00457617 0
1.11301 0.00465734 0
1.10907 0.00479535 0
1.10516 0.00488242 0
1.10128 0.00502271 0
1.09743 0.00511172 0
1.09362 0.00525029 0
1.08983 0.00533758 0
1.08608 0.00547081 0
1.08235 0.00555301 0
1.07866 0.00567767 0
1.07499 0.00575182 0
1.07136 0.00586509 0
1.06775 0.0059286 0
1.06417 0.0060281 0
1.06063 0.00607874 0
1.05711 0.00616254 0
1.05363 0.0061985 0
1.05018 0.0062651 0
1.04676 0.00628495 0
1.04338 0.00633328 0
1.04004 0.00633599 0
1.03674 0.00636541 0
1.03347 0.00635034 0
1.03025 0.00636061 0
1.02707 0.00632748 0
1.02394 0.00631875 0
1.02085 0.00626765 0
1.01781 0.00624041 0
1.01482 0.00617174 0
1.01188 0.00612682 0
1.009 0.00604131 0
1.00617 0.00597979 0
1.0034 0.00587845 0
1.00069 0.00580166 0
0.998039 0.00568569 0
0.995447 0.00559515 0
0.992919 0.00546599 0
0.990453 0.00536333 0
0.988052 0.00522253 0
0.985715 0.0051095 0
0.983445 0.00495871 0
0.98124 0.00483706 0
0.979102 0.00467799 0
0.97703 0.00454948 0
0.975026 0.00438384 0
0.973086 0.00425016 0
0.971214 0.00407961 0
0.969406 0.00394236 0
0.967665 0.00376852 0
0.965986 0.00362918 0
0.964371 0.00345356 0
0.962817 0.00331346 0
0.961325 0.00313742 0
0.959891 0.00299775 0
0.958516 0.00282256 0
0.957195 0.00268432 0
0.95593 0.0025111 0
0.954715 0.00237514 0
0.953552 0.00220485 0
0.952436 0.00207188 0
0.951369 0.00190538 0
0.950344 0.00177595 0
0.949364 0.00161402 0
0.948423 0.00148864 0
0.947525 0.00133209 0
0.946663 0.0012114 0
0.945842 0.00106148 0
0.945056 0.000946816 0
0.944311 0.000806299 0
0.943603 0.000701129 0
0.942941 0.000577321 0
0.942329 0.000491151 0
0.9418 0.000403725 0
0.941424 0.000361753 0
0.975288 -0.000161791 0
0.953415 -0.000370632 0
0.933998 -0.000619405 0
0.916699 -0.000899569 0
0.901219 -0.00120675 0
0.887311 -0.00153257 0
0.874764 -0.00187591 0
0.863411 -0.00222842 0
0.853112 -0.00259221 0
0.843761 -0.00295873 0
0.835271 -0.00333309 0
0.827577 -0.00370627 0
0.820623 -0.00408599 0
0.814373 -0.00446258 0
0.808791 -0.00484588 0
0.803854 -0.00522547 0
0.79954 -0.0056128 0
0.795834 -0.00599666 0
0.792717 -0.00638956 0
0.790179 -0.00677957 0
0.788206 -0.00717976 0
0.786787 -0.00757753 0
0.785909 -0.00798605 0
0.785564 -0.00839218 0
0.785739 -0.00880878 0
0.786425 -0.00922229 0
0.787611 -0.00964487 0
0.789287 -0.0100627 0
0.791444 -0.010487 0
0.794071 -0.0109038 0
0.79716 -0.011323 0
0.800701 -0.0117309 0
0.804684 -0.0121357 0
0.8091 -0.0125242 0
0.81394 -0.0129031 0
0.819194 -0.0132595 0
0.824852 -0.0135986 0
0.830903 -0.0139083 0
0.837337 -0.0141922 0
0.844142 -0.0144392 0
0.851307 -0.0146515 0
0.858817 -0.0148196 0
0.86666 -0.0149442 0
0.87482 -0.0150175 0
0.883282 -0.0150394 0
0.892029 -0.0150039 0
0.901043 -0.0149103 0
0.910305 -0.0147548 0
0.919797 -0.0145364 0
0.929495 -0.0142537 0
0.939381 -0.0139053 0
0.94943 -0.0134929 0
0.95962 -0.0130146 0
0.969926 -0.012475 0
0.980325 -0.0118722 0
0.990791 -0.0112135 0
1.0013 -0.0104967 0
1.01182 -0.0097322 0
1.02234 -0.00891712 0
1.03282 -0.00806459 0
1.04325 -0.00717099 0
1.05358 -0.00625208 0
1.06381 -0.00530298 0
1.0739 -0.00434201 0
1.08384 -0.00336256 0
1.09359 -0.00238538 0
1.10314 -0.00140163 0
1.11246 -0.000434393 0
1.12154 0.000527862 0
1.13034 0.00145982 0
1.13886 0.00237619 0
1.14707 0.0032494 0
1.15496 0.00409786 0
1.1625 0.00489165 0
1.16969 0.00565335 0
1.17651 0.00635059 0
1.18294 0.00701053 0
1.18898 0.00759816 0
1.19461 0.00814565 0
1.19983 0.00861509 0
1.20462 0.00904402 0
1.20899 0.00939135 0
1.21292 0.00970031 0
1.21641 0.00992627 0
1.21947 0.0101184 0
1.22209 0.0102282 0
1.22427 0.0103109 0
1.22602 0.0103139 0
1.22735 0.0102984 0
1.22825 0.0102073 0
1.22875 0.010108 0
1.22885 0.00993842 0
1.22857 0.00977197 0
1.22791 0.00954127 0
1.2269 0.00932565 0
1.22555 0.00905223 0
1.22388 0.00880583 0
1.2219 0.00850798 0
1.21964 0.00824863 0
1.21712 0.00794367 0
1.21436 0.00768774 0
1.21138 0.00739122 0
1.2082 0.00715296 0
1.20483 0.00687805 0
1.20131 0.00666904 0
1.19764 0.00642614 0
1.19386 0.00625509 0
1.18996 0.00605166 0
1.18599 0.00592426 0
1.18194 0.00576489 0
1.17783 0.00568405 0
1.17368 0.00557063 0
1.1695 0.00553671 0
1.16529 0.0054688 0
1.16108 0.00548 0
1.15685 0.00545525 0
1.15264 0.00550809 0
1.14844 0.00552264 0
1.14425 0.00561232 0
1.14008 0.00566126 0
1.13594 0.00578216 0
1.13182 0.00585987 0
1.12774 0.00600583 0
1.12368 0.00610634 0
1.11966 0.00627104 0
1.11566 0.00638827 0
1.1117 0.00656538 0
1.10777 0.00669336 0
1.10388 0.00687682 0
1.10001 0.00700983 0
1.09618 0.0071939 0
1.09238 0.00732661 0
1.08861 0.00750602 0
1.08487 0.00763352 0
1.08116 0.00780351 0
1.07748 0.00792139 0
1.07383 0.00807777 0
1.07021 0.00818214 0
1.06662 0.0083213 0
1.06306 0.00840883 0
1.05953 0.00852774 0
1.05604 0.00859563 0
1.05257 0.0086919 0
1.04915 0.00873793 0
1.04575 0.00880974 0
1.04239 0.00883223 0
1.03907 0.00887837 0
1.03579 0.00887619 0
1.03254 0.00889601 0
1.02934 0.00886857 0
1.02618 0.00886196 0
1.02307 0.00880918 0
1.02001 0.00877656 0
1.01699 0.00869884 0
1.01402 0.00864107 0
1.01111 0.00853928 0
1.00825 0.00845766 0
1.00544 0.00833303 0
1.00269 0.00822922 0
1 0.00808334 0
0.997372 0.00795929 0
0.994804 0.00779407 0
0.992295 0.00765195 0
0.989851 0.00746949 0
0.987469 0.00731165 0
0.985154 0.00711421 0
0.982902 0.00694307 0
0.980718 0.00673304 0
0.978598 0.00655104 0
0.976546 0.0063308 0
0.974558 0.00614034 0
0.972638 0.00591226 0
0.970781 0.00571566 0
0.968992 0.00548201 0
0.967265 0.00528142 0
0.965603 0.00504436 0
0.964002 0.00484178 0
0.962464 0.0046033 0
0.960984 0.00440049 0
0.959565 0.0041624 0
0.958201 0.00396093 0
0.956895 0.00372484 0
0.955639 0.00352604 0
0.954438 0.00329338 0
0.953284 0.00309835 0
0.952181 0.00287035 0
0.95112 0.00268001 0
0.950108 0.00245774 0
0.949134 0.00227287 0
0.948204 0.00205734 0
0.947311 0.00187875 0
0.94646 0.00167123 0
0.945643 0.00150022 0
0.944868 0.00130311 0
0.944126 0.00114275 0
0.943427 0.000962094 0
0.942767 0.000820742 0
0.942164 0.000672783 0
0.941635 0.000572967 0
0.941265 0.000500886 0
0.97523 -0.000207313 0
0.953307 -0.000475451 0
0.93385 -0.000793606 0
0.916518 -0.00115387 0
0.901014 -0.00154604 0
0.887086 -0.00196572 0
0.874526 -0.00240334 0
0.863162 -0.00285822 0
0.852857 -0.00332119 0
0.843501 -0.00379512 0
0.835009 -0.00427088 0
0.827311 -0.00475446 0
0.820356 -0.00523649 0
0.814103 -0.00572554 0
0.80852 -0.00621175 0
0.803579 -0.0067057 0
0.799262 -0.00719687 0
0.79555 -0.00769724 0
0.792428 -0.00819558 0
0.789883 -0.00870469 0
0.787903 -0.0092126 0
0.786476 -0.0097324 0
0.78559 -0.0102514 0
0.785236 -0.0107825 0
0.785403 -0.0113125 0
0.786081 -0.0118536 0
0.787259 -0.012392 0
0.788929 -0.0129389 0
0.79108 -0.0134802 0
0.793704 -0.0140259 0
0.796791 -0.0145617 0
0.800333 -0.0150958 0
0.804319 -0.015614 0
0.808742 -0.0161229 0
0.813592 -0.0166085 0
0.818859 -0.0170755 0
0.824533 -0.0175105 0
0.830606 -0.0179165 0
0.837064 -0.0182808 0
0.843898 -0.018605 0
0.851094 -0.0188775 0
0.858641 -0.0190985 0
0.866522 -0.019258 0
0.874725 -0.0193552 0
0.883232 -0.0193821 0
0.892027 -0.0193372 0
0.90109 -0.0192148 0
0.910404 -0.0190134 0
0.919946 -0.0187296 0
0.929697 -0.0183621 0
0.939633 -0.0179106 0
0.949732 -0.0173738 0
0.959969 -0.0167547 0
0.97032 -0.0160522 0
0.98076 -0.0152727 0
0.991264 -0.0144152 0
1.0018 -0.0134895 0
1.01236 -0.0124944 0
1.02289 -0.011443 0
1.03339 -0.0103339 0
1.04382 -0.00918288 0
1.05416 -0.00798781 0
1.06438 -0.00676739 0
1.07446 -0.00551805 0
1.08438 -0.00426109 0
1.0941 -0.00299101 0
1.10361 -0.00173145 0
1.11289 -0.000474418 0
1.12192 0.000754248 0
1.13067 0.00196563 0
1.13912 0.00313181 0
1.14727 0.00426753 0
1.15508 0.0053428 0
1.16255 0.00637656 0
1.16965 0.0073367 0
1.17638 0.00824687 0
1.18272 0.00907271 0
1.18867 0.00984303 0
1.19421 0.010521 0
1.19933 0.011141 0
1.20402 0.0116636 0
1.2083 0.0121288 0
1.21213 0.0124943 0
1.21553 0.0128065 0
1.21849 0.0130193 0
1.22102 0.0131854 0
1.22311 0.0132554 0
1.22478 0.013288 0
1.22602 0.0132297 0
1.22685 0.0131456 0
1.22727 0.0129775 0
1.22731 0.0127969 0
1.22695 0.0125405 0
1.22624 0.0122859 0
1.22517 0.0119643 0
1.22378 0.0116591 0
1.22206 0.011296 0
1.22005 0.0109633 0
1.21775 0.0105814 0
1.21521 0.0102434 0
1.21242 0.00986364 0
1.20942 0.00953961 0
1.20622 0.00918031 0
1.20285 0.00888675 0
1.19932 0.00856274 0
1.19565 0.00831249 0
1.19186 0.008035 0
1.18798 0.00783713 0
1.184 0.00761363 0
1.17996 0.00747352 0
1.17585 0.00730794 0
1.17171 0.00722756 0
1.16754 0.00712066 0
1.16335 0.00709901 0
1.15914 0.00704885 0
1.15494 0.00708251 0
1.15073 0.00708498 0
1.14655 0.00716865 0
1.14237 0.00721804 0
1.13822 0.00734506 0
1.13409 0.00743457 0