# vtk DataFile Version 3.0
Flow field at step 1800
ASCII
DATASET STRUCTURED_GRID
DIMENSIONS 200 100 1
POINTS 20000 float
0.005 0.005 0
0.015 0.005 0
0.025 0.005 0
0.035 0.005 0
0.045 0.005 0
0.055 0.005 0
0.065 0.005 0
0.075 0.005 0
0.085 0.005 0
0.095 0.005 0
0.105 0.005 0
0.115 0.005 0
0.125 0.005 0
0.135 0.005 0
0.145 0.005 0
0.155 0.005 0
0.165 0.005 0
0.175 0.005 0
0.185 0.005 0
0.195 0.005 0
0.205 0.005 0
0.215 0.005 0
0.225 0.005 0
0.235 0.005 0
0.245 0.005 0
0.255 0.005 0
0.265 0.005 0
0.275 0.005 0
0.285 0.005 0
0.295 0.005 0
0.305 0.005 0
0.315 0.005 0
0.325 0.005 0
0.335 0.005 0
0.345 0.005 0
0.355 0.005 0
0.365 0.005 0
0.375 0.005 0
0.385 0.005 0
0.395 0.005 0
0.405 0.005 0
0.415 0.005 0
0.425 0.005 0
0.435 0.005 0
0.445 0.005 0
0.455 0.005 0
0.465 0.005 0
0.475 0.005 0
0.485 0.005 0
0.495 0.005 0
0.505 0.005 0
0.515 0.005 0
0.525 0.005 0
0.535 0.005 0
0.545 0.005 0
0.555 0.005 0
0.565 0.005 0
0.575 0.005 0
0.585 0.005 0
0.595 0.005 0
0.605 0.005 0
0.615 0.005 0
0.625 0.005 0
0.635 0.005 0
0.645 0.005 0
0.655 0.005 0
0.665 0.005 0
0.675 0.005 0
0.685 0.005 0
0.695 0.005 0
0.705 0.005 0
0.715 0.005 0
0.725 0.005 0
0.735 0.005 0
0.745 0.005 0
0.755 0.005 0
0.765 0.005 0
0.775 0.005 0
0.785 0.005 0
0.795 0.005 0
0.805 0.005 0
0.815 0.005 0
0.825 0.005 0
0.835 0.005 0
0.845 0.005 0
0.855 0.005 0
0.865 0.005 0
0.875 0.005 0
0.885 0.005 0
0.895 0.005 0
0.905 0.005 0
0.915 0.005 0
0.925 0.005 0
0.935 0.005 0
0.945 0.005 0
0.955 0.005 0
0.965 0.005 0
0.975 0.005 0
0.985 0.005 0
0.995 0.005 0
1.005 0.005 0
1.015 0.005 0
1.025 0.005 0
1.035 0.005 0
1.045 0.005 0
1.055 0.005 0
1.065 0.005 0
1.075 0.005 0
1.085 0.005 0
1.095 0.005 0
1.105 0.005 0
1.115 0.005 0
1.125 0.005 0
1.135 0.005 0
1.145 0.005 0
1.155 0.005 0
1.165 0.005 0
1.175 0.005 0
1.185 0.005 0
1.195 0.005 0
1.205 0.005 0
1.215 0.005 0
1.225 0.005 0
1.235 0.005 0
1.245 0.005 0
1.255 0.005 0
1.265 0.005 0
1.275 0.005 0
1.285 0.005 0
1.295 0.005 0
1.305 0.005 0
1.315 0.005 0
1.325 0.005 0
1.335 0.005 0
1.345 0.005 0
1.355 0.005 0
1.365 0.005 0
1.375 0.005 0
1.385 0.005 0
1.395 0.005 0
1.405 0.005 0
1.415 0.005 0
1.425 0.005 0
1.435 0.005 0
1.445 0.005 0
1.455 0.005 0
1.465 0.005 0
1.475 0.005 0
1.485 0.005 0
1.495 0.005 0
1.505 0.005 0
1.515 0.005 0
1.525 0.005 0
1.535 0.005 0
1.545 0.005 0
1.555 0.005 0
1.565 0.005 0
1.575 0.005 0
1.585 0.005 0
1.595 0.005 0
1.605 0.005 0
1.615 0.005 0
1.625 0.005 0
1.635 0.005 0
1.645 0.005 0
1.655 0.005 0
1.665 0.005 0
1.675 0.005 0
1.685 0.005 0
1.695 0.005 0
1.705 0.005 0
1.715 0.005 0
1.725 0.005 0
1.735 0.005 0
1.745 0.005 0
1.755 0.005 0
1.765 0.005 0
1.775 0.005 0
1.785 0.005 0
1.795 0.005 0
1.805 0.005 0
1.815 0.005 0
1.825 0.005 0
1.835 0.005 0
1.845 0.005 0
1.855 0.005 0
1.865 0.005 0
1.875 0.005 0
1.885 0.005 0
1.895 0.005 0
1.905 0.005 0
1.915 0.005 0
1.925 0.005 0
1.935 0.005 0
1.945 0.005 0
1.955 0.005 0
1.965 0.005 0
1.975 0.005 0
1.985 0.005 0
1.995 0.005 0
0.005 0.015 0
0.015 0.015 0
0.025 0.015 0
0.035 0.015 0
0.045 0.015 0
0.055 0.015 0
0.065 0.015 0
0.075 0.015 0
0.085 0.015 0
0.095 0.015 0
0.105 0.015 0
0.115 0.015 0
0.125 0.015 0
0.135 0.015 0
0.145 0.015 0
0.155 0.015 0
0.165 0.015 0
0.175 0.015 0
0.185 0.015 0
0.195 0.015 0
0.205 0.015 0
0.215 0.015 0
0.225 0.015 0
0.235 0.015 0
0.245 0.015 0
0.255 0.015 0
0.265 0.015 0
0.275 0.015 0
0.285 0.015 0
0.295 0.015 0
0.305 0.015 0
0.315 0.015 0
0.325 0.015 0
0.335 0.015 0
0.345 0.015 0
0.355 0.015 0
0.365 0.015 0
0.375 0.015 0
0.385 0.015 0
0.395 0.015 0
0.405 0.015 0
0.415 0.015 0
0.425 0.015 0
0.435 0.015 0
0.445 0.015 0
0.455 0.015 0
0.465 0.015 0
0.475 0.015 0
0.485 0.015 0
0.495 0.015 0
0.505 0.015 0
0.515 0.015 0
0.525 0.015 0
0.535 0.015 0
0.545 0.015 0
0.555 0.015 0
0.565 0.015 0
0.575 0.015 0
0.585 0.015 0
0.595 0.015 0
0.605 0.015 0
0.615 0.015 0
0.625 0.015 0
0.635 0.015 0
0.645 0.015 0
0.655 0.015 0
0.665 0.015 0
0.675 0.015 0
0.685 0.015 0
0.695 0.015 0
0.705 0.015 0
0.715 0.015 0
0.725 0.015 0
0.735 0.015 0
0.745 0.015 0
0.755 0.015 0
0.765 0.015 0
0.775 0.015 0
0.785 0.015 0
0.795 0.015 0
0.805 0.015 0
0.815 0.015 0
0.825 0.015 0
0.835 0.015 0
0.845 0.015 0
0.855 0.015 0
0.865 0.015 0
0.875 0.015 0
0.885 0.015 0
0.895 0.015 0
0.905 0.015 0
0.915 0.015 0
0.925 0.015 0
0.935 0.015 0
0.945 0.015 0
0.955 0.015 0
0.965 0.015 0
0.975 0.015 0
0.985 0.015 0
0.995 0.015 0
1.005 0.015 0
1.015 0.015 0
1.025 0.015 0
1.035 0.015 0
1.045 0.015 0
1.055 0.015 0
1.065 0.015 0
1.075 0.015 0
1.085 0.015 0
1.095 0.015 0
1.105 0.015 0
1.115 0.015 0
1.125 0.015 0
1.135 0.015 0
1.145 0.015 0
1.155 0.015 0
1.165 0.015 0
1.175 0.015 0
1.185 0.015 0
1.195 0.015 0
1.205 0.015 0
1.215 0.015 0
1.225 0.015 0
1.235 0.015 0
1.245 0.015 0
1.255 0.015 0
1.265 0.015 0
1.275 0.015 0
1.285 0.015 0
1.295 0.015 0
1.305 0.015 0
1.315 0.015 0
1.325 0.015 0
1.335 0.015 0
1.345 0.015 0
1.355 0.015 0
1.365 0.015 0
1.375 0.015 0
1.385 0.015 0
1.395 0.015 0
1.405 0.015 0
1.415 0.015 0
1.425 0.015 0
1.435 0.015 0
1.445 0.015 0
1.455 0.015 0
1.465 0.015 0
1.475 0.015 0
1.485 0.015 0
1.495 0.015 0
1.505 0.015 0
1.515 0.015 0
1.525 0.015 0
1.535 0.015 0
1.545 0.015 0
1.555 0.015 0
1.565 0.015 0
1.575 0.015 0
1.585 0.015 0
1.595 0.015 0
1.605 0.015 0
1.615 0.015 0
1.625 0.015 0
1.635 0.015 0
1.645 0.015 0
1.655 0.015 0
1.665 0.015 0
1.675 0.015 0
1.685 0.015 0
1.695 0.015 0
1.705 0.015 0
1.715 0.015 0
1.725 0.015 0
1.735 0.015 0
1.745 0.015 0
1.755 0.015 0
1.765 0.015 0
1.775 0.015 0
1.785 0.015 0
1.795 0.015 0
1.805 0.015 0
1.815 0.015 0
1.825 0.015 0
1.835 0.015 0
1.845 0.015 0
1.855 0.015 0
1.865 0.015 0
1.875 0.015 0
1.885 0.015 0
1.895 0.015 0
1.905 0.015 0
1.915 0.015 0
1.925 0.015 0
1.935 0.015 0
1.945 0.015 0
1.955 0.015 0
1.965 0.015 0
1.975 0.015 0
1.985 0.015 0
1.995 0.015 0
0.005 0.025 0
0.015 0.025 0
0.025 0.025 0
0.035 0.025 0
0.045 0.025 0
0.055 0.025 0
0.065 0.025 0
0.075 0.025 0
0.085 0.025 0
0.095 0.025 0
0.105 0.025 0
0.115 0.025 0
0.125 0.025 0
0.135 0.025 0
0.145 0.025 0
0.155 0.025 0
0.165 0.025 0
0.175 0.025 0
0.185 0.025 0
0.195 0.025 0
0.205 0.025 0
0.215 0.025 0
0.225 0.025 0
0.235 0.025 0
0.245 0.025 0
0.255 0.025 0
0.265 0.025 0
0.275 0.025 0
0.285 0.025 0
0.295 0.025 0
0.305 0.025 0
0.315 0.025 0
0.325 0.025 0
0.335 0.025 0
0.345 0.025 0
0.355 0.025 0
0.365 0.025 0
0.375 0.025 0
0.385 0.025 0
0.395 0.025 0
0.405 0.025 0
0.415 0.025 0
0.425 0.025 0
0.435 0.025 0
0.445 0.025 0
0.455 0.025 0
0.465 0.025 0
0.475 0.025 0
0.485 0.025 0
0.495 0.025 0
0.505 0.025 0
0.515 0.025 0
0.525 0.025 0
0.535 0.025 0
0.545 0.025 0
0.555 0.025 0
0.565 0.025 0
0.575 0.025 0
0.585 0.025 0
0.595 0.025 0
0.605 0.025 0
0.615 0.025 0
0.625 0.025 0
0.635 0.025 0
0.645 0.025 0
0.655 0.025 0
0.665 0.025 0
0.675 0.025 0
0.685 0.025 0
0.695 0.025 0
0.705 0.025 0
0.715 0.025 0
0.725 0.025 0
0.735 0.025 0
0.745 0.025 0
0.755 0.025 0
0.765 0.025 0
0.775 0.025 0
0.785 0.025 0
0.795 0.025 0
0.805 0.025 0
0.815 0.025 0
0.825 0.025 0
0.835 0.025 0
0.845 0.025 0
0.855 0.025 0
0.865 0.025 0
0.875 0.025 0
0.885 0.025 0
0.895 0.025 0
0.905 0.025 0
0.915 0.025 0
0.925 0.025 0
0.935 0.025 0
0.945 0.025 0
0.955 0.025 0
0.965 0.025 0
0.975 0.025 0
0.985 0.025 0
0.995 0.025 0
1.005 0.025 0
1.015 0.025 0
1.025 0.025 0
1.035 0.025 0
1.045 0.025 0
1.055 0.025 0
1.065 0.025 0
1.075 0.025 0
1.085 0.025 0
1.095 0.025 0
1.105 0.025 0
1.115 0.025 0
1.125 0.025 0
1.135 0.025 0
1.145 0.025 0
1.155 0.025 0
1.165 0.025 0
1.175 0.025 0
1.185 0.025 0
1.195 0.025 0
1.205 0.025 0
1.215 0.025 0
1.225 0.025 0
1.235 0.025 0
1.245 0.025 0
1.255 0.025 0
1.265 0.025 0
1.275 0.025 0
1.285 0.025 0
1.295 0.025 0
1.305 0.025 0
1.315 0.025 0
1.325 0.025 0
1.335 0.025 0
1.345 0.025 0
1.355 0.025 0
1.365 0.025 0
1.375 0.025 0
1.385 0.025 0
1.395 0.025 0
1.405 0.025 0
1.415 0.025 0
1.425 0.025 0
1.435 0.025 0
1.445 0.025 0
1.455 0.025 0
1.465 0.025 0
1.475 0.025 0
1.485 0.025 0
1.495 0.025 0
1.505 0.025 0
1.515 0.025 0
1.525 0.025 0
1.535 0.025 0
1.545 0.025 0
1.555 0.025 0
1.565 0.025 0
1.575 0.025 0
1.585 0.025 0
1.595 0.025 0
1.605 0.025 0
1.615 0.025 0
1.625 0.025 0
1.635 0.025 0
1.645 0.025 0
1.655 0.025 0
1.665 0.025 0
1.675 0.025 0
1.685 0.025 0
1.695 0.025 0
1.705 0.025 0
1.715 0.025 0
1.725 0.025 0
1.735 0.025 0
1.745 0.025 0
1.755 0.025 0
1.765 0.025 0
1.775 0.025 0
1.785 0.025 0
1.795 0.025 0
1.805 0.025 0
1.815 0.025 0
1.825 0.025 0
1.835 0.025 0
1.845 0.025 0
1.855 0.025 0
1.865 0.025 0
1.875 0.025 0
1.885 0.025 0
1.895 0.025 0
1.905 0.025 0
1.915 0.025 0
1.925 0.025 0
1.935 0.025 0
1.945 0.025 0
1.955 0.025 0
1.965 0.025 0
1.975 0.025 0
1.985 0.025 0
1.995 0.025 0
0.005 0.035 0
0.015 0.035 0
0.025 0.035 0
0.035 0.035 0
0.045 0.035 0
0.055 0.035 0
0.065 0.035 0
0.075 0.035 0
0.085 0.035 0
0.095 0.035 0
0.105 0.035 0
0.115 0.035 0
0.125 0.035 0
0.135 0.035 0
0.145 0.035 0
0.155 0.035 0
0.165 0.035 0
0.175 0.035 0
0.185 0.035 0
0.195 0.035 0
0.205 0.035 0
0.215 0.035 0
0.225 0.035 0
0.235 0.035 0
0.245 0.035 0
0.255 0.035 0
0.265 0.035 0
0.275 0.035 0
0.285 0.035 0
0.295 0.035 0
0.305 0.035 0
0.315 0.035 0
0.325 0.035 0
0.335 0.035 0
0.345 0.035 0
0.355 0.035 0
0.365 0.035 0
0.375 0.035 0
0.385 0.035 0
0.395 0.035 0
0.405 0.035 0
0.415 0.035 0
0.425 0.035 0
0.435 0.035 0
0.445 0.035 0
0.455 0.035 0
0.465 0.035 0
0.475 0.035 0
0.485 0.035 0
0.495 0.035 0
0.505 0.035 0
0.515 0.035 0
0.525 0.035 0
0.535 0.035 0
0.545 0.035 0
0.555 0.035 0
0.565 0.035 0
0.575 0.035 0
0.585 0.035 0
0.595 0.035 0
0.605 0.035 0
0.615 0.035 0
0.625 0.035 0
0.635 0.035 0
0.645 0.035 0
0.655 0.035 0
0.665 0.035 0
0.675 0.035 0
0.685 0.035 0
0.695 0.035 0
0.705 0.035 0
0.715 0.035 0
0.725 0.035 0
0.735 0.035 0
0.745 0.035 0
0.755 0.035 0
0.765 0.035 0
0.775 0.035 0
0.785 0.035 0
0.795 0.035 0
0.805 0.035 0
0.815 0.035 0
0.825 0.035 0
0.835 0.035 0
0.845 0.035 0
0.855 0.035 0
0.865 0.035 0
0.875 0.035 0
0.885 0.035 0
0.895 0.035 0
0.905 0.035 0
0.915 0.035 0
0.925 0.035 0
0.935 0.035 0
0.945 0.035 0
0.955 0.035 0
0.965 0.035 0
0.975 0.035 0
0.985 0.035 0
0.995 0.035 0
1.005 0.035 0
1.015 0.035 0
1.025 0.035 0
1.035 0.035 0
1.045 0.035 0
[...]
POINT_DATA 20000
VECTORS velocity float
0.950874 -2.41391e-05 0
0.909728 -5.41321e-05 0
0.875712 -8.84676e-05 0
0.847894 -0.000126061 0
0.825356 -0.000165916 0
0.807254 -0.000207558 0
0.79284 -0.000250352 0
0.781468 -0.000294265 0
0.772596 -0.000338859 0
0.765775 -0.00038439 0
0.760633 -0.000430494 0
0.756871 -0.000477609 0
0.754246 -0.000525377 0
0.752564 -0.000574341 0
0.751669 -0.000624109 0
0.751439 -0.000675282 0
0.751776 -0.000727415 0
0.752604 -0.00078113 0
0.753863 -0.000835921 0
0.755509 -0.000892403 0
0.757504 -0.000950009 0
0.759823 -0.00100932 0
0.762446 -0.00106971 0
0.765359 -0.0011317 0
0.768551 -0.00119461 0
0.772016 -0.00125888 0
0.77575 -0.00132378 0
0.779752 -0.00138965 0
0.78402 -0.00145572 0
0.788555 -0.0015222 0
0.793359 -0.00158828 0
0.798433 -0.00165407 0
0.803781 -0.0017187 0
0.809402 -0.00178215 0
0.8153 -0.00184354 0
0.821475 -0.00190273 0
0.827928 -0.00195882 0
0.834658 -0.00201157 0
0.841665 -0.00206008 0
0.848947 -0.00210406 0
0.856499 -0.00214261 0
0.864317 -0.0021754 0
0.872397 -0.00220162 0
0.88073 -0.00222091 0
0.889308 -0.00223257 0
0.898121 -0.00223626 0
0.907159 -0.00223144 0
0.916408 -0.00221783 0
0.925854 -0.00219506 0
0.935482 -0.00216297 0
0.945277 -0.00212137 0
0.955219 -0.00207026 0
0.965291 -0.00200966 0
0.975472 -0.00193971 0
0.985743 -0.00186067 0
0.996081 -0.00177283 0
1.00647 -0.00167667 0
1.01687 -0.00157261 0
1.02728 -0.00146136 0
1.03767 -0.00134345 0
1.048 -0.00121975 0
1.05827 -0.00109091 0
1.06845 -0.000957922 0
1.07851 -0.000821489 0
1.08843 -0.000682708 0
1.09818 -0.000542294 0
1.10775 -0.000401406 0
1.11712 -0.000260725 0
1.12626 -0.000121434 0
1.13514 1.58601e-05 0
1.14376 0.000149982 0
1.1521 0.000280446 0
1.16012 0.000406106 0
1.16783 0.000526634 0
1.17519 0.000640933 0
1.1822 0.000748872 0
1.18884 0.000849407 0
1.1951 0.000942636 0
1.20096 0.00102757 0
1.20642 0.00110457 0
1.21147 0.00117269 0
1.2161 0.00123257 0
1.22029 0.00128331 0
1.22406 0.00132582 0
1.2274 0.00135923 0
1.2303 0.00138477 0
1.23277 0.00140153 0
1.23481 0.00141107 0
1.23642 0.00141241 0
1.23762 0.00140745 0
1.2384 0.00139508 0
1.23879 0.00137754 0
1.2388 0.00135355 0
1.23843 0.00132566 0
1.23771 0.00129238 0
1.23665 0.00125656 0
1.23527 0.00121644 0
1.2336 0.00117517 0
1.23165 0.00113064 0
1.22945 0.00108631 0
1.22702 0.00103966 0
1.22439 0.000994455 0
1.22157 0.000947736 0
1.21859 0.00090356 0
1.21548 0.000858493 0
1.21226 0.000816892 0
1.20894 0.000774827 0
1.20555 0.000736964 0
1.20211 0.000698864 0
1.19863 0.000665518 0
1.19514 0.000631977 0
1.19165 0.000603572 0
1.18818 0.000574848 0
1.18473 0.000551496 0
1.18132 0.000527568 0
1.17795 0.000509131 0
1.17464 0.000489756 0
1.1714 0.000475904 0
1.16822 0.000460683 0
1.16511 0.00045096 0
1.16209 0.000439391 0
1.15913 0.000433268 0
1.15626 0.0004248 0
1.15347 0.000421719 0
1.15076 0.000415791 0
1.14812 0.000415204 0
1.14557 0.000411277 0
1.14308 0.00041267 0
1.14067 0.000410246 0
1.13833 0.00041316 0
1.13606 0.000411797 0
1.13385 0.000415833 0
1.1317 0.000415154 0
1.12961 0.000419981 0
1.12758 0.000419668 0
1.12559 0.000425023 0
1.12366 0.000424821 0
1.12176 0.0004305 0
1.11991 0.000430209 0
1.1181 0.000436067 0
1.11632 0.000435538 0
1.11458 0.000441476 0
1.11287 0.0004406 0
1.11119 0.000446564 0
1.10953 0.000445268 0
1.1079 0.000451235 0
1.10629 0.000449472 0
1.1047 0.000455447 0
1.10313 0.000453192 0
1.10157 0.0004592 0
1.10004 0.000456443 0
1.09851 0.000462521 0
1.09701 0.000459263 0
1.09551 0.000465457 0
1.09403 0.000461705 0
1.09256 0.000468062 0
1.0911 0.000463826 0
1.08966 0.000470395 0
1.08822 0.000465685 0
1.08679 0.00047251 0
1.08538 0.000467334 0
1.08397 0.00047445 0
1.08257 0.000468813 0
1.08119 0.000476246 0
1.07981 0.00047015 0
1.07845 0.000477914 0
1.07709 0.000471354 0
1.07574 0.000479448 0
1.07441 0.000472415 0
1.07309 0.000480823 0
1.07177 0.000473301 0
1.07047 0.00048199 0
1.06919 0.000473956 0
1.06791 0.000482875 0
1.06666 0.000474299 0
1.06541 0.00048338 0
1.06418 0.000474222 0
1.06297 0.000483376 0
1.06177 0.000473591 0
1.06059 0.000482709 0
1.05944 0.000472239 0
1.0583 0.000481195 0
1.05718 0.000469971 0
1.05609 0.000478618 0
1.05501 0.000466564 0
1.05397 0.000474735 0
1.05295 0.000461768 0
1.05196 0.00046928 0
1.051 0.000455319 0
1.05007 0.000461974 0
1.04918 0.000446974 0
1.04832 0.000452563 0
1.0475 0.000436588 0
1.04672 0.00044091 0
1.04598 0.000424332 0
1.04529 0.000427223 0
1.04465 0.000411219 0
1.04406 0.000412664 0
1.04356 0.000400476 0
1.0432 0.000400811 0
0.950859 -7.23819e-05 0
0.909701 -0.000162256 0
0.875676 -0.000265267 0
0.847851 -0.00037785 0
0.825309 -0.000497487 0
0.807203 -0.000622122 0
0.792785 -0.000750656 0
0.781411 -0.000882022 0
0.772537 -0.00101604 0
0.765714 -0.00115218 0
0.76057 -0.00129081 0
0.756806 -0.00143165 0
0.754179 -0.00157534 0
0.752494 -0.00172169 0
0.751597 -0.00187145 0
0.751364 -0.0020244 0
0.751698 -0.00218132 0
0.752523 -0.00234188 0
0.753779 -0.00250683 0
0.755421 -0.0026757 0
0.757413 -0.00284914 0
0.759729 -0.00302652 0
0.762349 -0.00320834 0
0.765259 -0.00339381 0
0.768448 -0.00358322 0
0.771911 -0.00377559 0
0.775643 -0.00397099 0
0.779643 -0.00416824 0
0.783909 -0.00436714 0
0.788444 -0.00456631 0
0.793248 -0.00476526 0
0.798323 -0.0049624 0
0.803672 -0.00515698 0
0.809296 -0.00534719 0
0.815197 -0.00553202 0
0.821376 -0.00570951 0
0.827833 -0.00587838 0
0.83457 -0.00603659 0
0.841584 -0.00618268 0
0.848873 -0.00631456 0
0.856434 -0.00643068 0
0.864263 -0.006529 0
0.872353 -0.00660799 0
0.880698 -0.00666576 0
0.889289 -0.00670092 0
0.898115 -0.00671185 0
0.907166 -0.00669739 0
0.916429 -0.00665633 0
0.92589 -0.00658787 0
0.935533 -0.00649126 0
0.945341 -0.00636616 0
0.955298 -0.0062124 0
0.965383 -0.00603013 0
0.975578 -0.00581978 0
0.985861 -0.00558205 0
0.996211 -0.00531798 0
1.0066 -0.00502878 0
1.01702 -0.00471607 0
1.02744 -0.00438152 0
1.03783 -0.00402726 0
1.04817 -0.00365537 0
1.05844 -0.00326837 0
1.06862 -0.00286863 0
1.07868 -0.00245896 0
1.08859 -0.00204189 0
1.09834 -0.00162042 0
1.10791 -0.00119712 0
1.11727 -0.000775016 0
1.12639 -0.000356603 0
1.13527 5.5148e-05 0
1.14388 0.000457957 0
1.1522 0.000849009 0
1.16021 0.00122634 0
1.16789 0.00158738 0
1.17524 0.00193056 0
1.18223 0.00225361 0
1.18884 0.00255547 0
1.19508 0.0028342 0
1.20092 0.00308927 0
1.20636 0.00331912 0
1.21138 0.0035238 0
1.21598 0.00370213 0
1.22016 0.00385475 0
1.2239 0.00398083 0
1.22722 0.00408165 0
1.23009 0.00415665 0
1.23254 0.00420774 0
1.23456 0.00423461 0
1.23615 0.00423973 0
1.23732 0.00422294 0
1.23809 0.00418725 0
1.23846 0.00413256 0
1.23845 0.00406237 0
1.23806 0.00397646 0
1.23733 0.00387878 0
1.23625 0.0037689 0
1.23487 0.00365109 0
1.23318 0.00352462 0
1.23122 0.00339399 0
1.22901 0.00325805 0
1.22658 0.0031215 0
1.22393 0.00298263 0
1.22111 0.00284628 0
1.21813 0.00271013 0
1.21501 0.00257915 0
1.21178 0.00245034 0
1.20846 0.00232877 0
1.20506 0.00221075 0
1.20162 0.00210148 0
1.19814 0.00199657 0
1.19465 0.00190137 0
1.19116 0.00181082 0
1.18768 0.00173046 0
1.18423 0.00165461 0
1.18082 0.00158903 0
1.17745 0.00152745 0
1.17415 0.00147592 0
1.1709 0.00142762 0
1.16772 0.00138895 0
1.16461 0.00135257 0
1.16158 0.00132526 0
1.15863 0.00129921 0
1.15576 0.00128162 0
1.15296 0.00126423 0
1.15025 0.00125467 0
1.14761 0.00124429 0
1.14506 0.00124119 0
1.14257 0.00123626 0
1.14016 0.00123813 0
1.13782 0.00123727 0
1.13554 0.00124282 0
1.13333 0.00124481 0
1.13119 0.00125293 0
1.12909 0.00125674 0
1.12706 0.00126654 0
1.12507 0.00127134 0
1.12313 0.00128208 0
1.12124 0.00128722 0
1.11939 0.00129836 0
1.11757 0.00130335 0
1.1158 0.00131451 0
1.11405 0.00131899 0
1.11234 0.0013299 0
1.11066 0.00133363 0
1.109 0.00134415 0
1.10737 0.001347 0
1.10576 0.00135707 0
1.10417 0.00135897 0
1.1026 0.00136858 0
1.10104 0.00136953 0
1.09951 0.00137874 0
1.09799 0.00137876 0
1.09648 0.00138766 0
1.09499 0.00138681 0
1.09351 0.0013955 0
1.09204 0.00139383 0
1.09058 0.00140242 0
1.08914 0.00140001 0
1.0877 0.00140859 0
1.08628 0.0014055 0
1.08486 0.00141418 0
1.08346 0.00141046 0
1.08206 0.00141928 0
1.08068 0.00141496 0
1.0793 0.00142398 0
1.07794 0.00141908 0
1.07658 0.0014283 0
1.07524 0.00142279 0
1.07391 0.00143219 0
1.07259 0.00142603 0
1.07128 0.00143555 0
1.06998 0.00142868 0
1.0687 0.0014382 0
1.06743 0.0014305 0
1.06617 0.00143988 0
1.06493 0.00143123 0
1.0637 0.00144027 0
1.06249 0.00143049 0
1.0613 0.00143895 0
1.06012 0.00142781 0
1.05896 0.0014354 0
1.05783 0.00142267 0
1.05671 0.00142904 0
1.05562 0.00141442 0
1.05455 0.00141919 0
1.05351 0.00140235 0
1.05249 0.00140507 0
1.0515 0.00138567 0
1.05055 0.00138589 0
1.04962 0.00136358 0
1.04873 0.00136085 0
1.04787 0.00133542 0
1.04706 0.00132938 0
1.04628 0.00130098 0
1.04554 0.00129163 0
1.04485 0.00126147 0
1.04421 0.00124977 0
1.04363 0.00122178 0
1.04313 0.00121122 0
1.04277 0.00119623 0
0.950828 -0.000120466 0
0.909647 -0.000270077 0
0.875605 -0.000441467 0
0.847766 -0.000628912 0
0.825214 -0.000827914 0
0.8071 -0.00103547 0
0.792677 -0.00124923 0
0.781298 -0.00146806 0
0.772419 -0.0016909 0
0.765592 -0.00191777 0
0.760444 -0.00214828 0
0.756675 -0.00238305 0
0.754044 -0.002622 0
0.752354 -0.00286603 0
0.751451 -0.00311513 0
0.751213 -0.00337025 0
0.751541 -0.00363132 0
0.75236 -0.00389924 0
0.75361 -0.00417376 0
0.755246 -0.00445564 0
0.757232 -0.0047444 0
0.759541 -0.00504059 0
0.762155 -0.00534344 0
0.765059 -0.00565323 0
0.768243 -0.00596887 0
0.771701 -0.00629028 0
0.775428 -0.00661607 0
0.779424 -0.00694573 0
0.783689 -0.00727751 0
0.788222 -0.00761048 0
0.793026 -0.00794249 0
0.798102 -0.00827218 0
0.803453 -0.00859704 0
0.809082 -0.00891524 0
0.814989 -0.00922393 0
0.821176 -0.00952092 0
0.827644 -0.00980307 0
0.834392 -0.0100679 0
0.84142 -0.010312 0
0.848725 -0.0105327 0
0.856304 -0.0107268 0
0.864153 -0.0108914 0
0.872265 -0.0110233 0
0.880633 -0.01112 0
0.889249 -0.0111786 0
0.898102 -0.0111968 0
0.90718 -0.0111724 0
0.916471 -0.0111035 0
0.925961 -0.0109886 0
0.935633 -0.0108267 0
0.94547 -0.010617 0
0.955455 -0.0103594 0
0.965568 -0.010054 0
0.975788 -0.00970167 0
0.986096 -0.00930359 0
0.996468 -0.0088614 0
1.00688 -0.00837733 0
1.01732 -0.00785388 0
1.02775 -0.00729415 0
1.03815 -0.00670142 0
1.0485 -0.00607951 0
1.05878 -0.00543229 0
1.06896 -0.00476416 0
1.07901 -0.00407938 0
1.08892 -0.00338271 0
1.09867 -0.00267859 0
1.10822 -0.00197195 0
1.11756 -0.00126719 0
1.12667 -0.000569187 0
1.13552 0.000117861 0
1.1441 0.000789317 0
1.15239 0.0014414 0
1.16036 0.00206985 0
1.16801 0.00267147 0
1.17532 0.00324249 0
1.18227 0.00378043 0
1.18885 0.00428212 0
1.19504 0.00474589 0
1.20083 0.00516923 0
1.20622 0.00555135 0
1.2112 0.00589044 0
1.21576 0.00618662 0
1.21988 0.00643877 0
1.22358 0.00664795 0
1.22684 0.00681367 0
1.22968 0.00693793 0
1.23208 0.0070208 0
1.23405 0.00706514 0
1.2356 0.00707147 0
1.23673 0.00704345 0
1.23746 0.00698191 0
1.23779 0.0068912 0
1.23774 0.00677229 0
1.23733 0.00663008 0
1.23656 0.00646548 0
1.23546 0.00628383 0
1.23405 0.0060858 0
1.23234 0.00587698 0
1.23036 0.00565764 0
1.22813 0.00543351 0
1.22568 0.00520425 0
1.22302 0.00497564 0
1.22018 0.0047466 0
1.21719 0.00452289 0
1.21406 0.0043026 0
1.21082 0.0040914 0
1.20749 0.00388653 0
1.20409 0.00369356 0
1.20064 0.00350886 0
1.19716 0.00333794 0
1.19367 0.00317631 0
1.19017 0.0030295 0
1.18669 0.00289222 0
1.18324 0.00277005 0
1.17983 0.00265698 0
1.17646 0.00255875 0
1.17315 0.00246869 0
1.1699 0.00239275 0
1.16672 0.00232371 0
1.16361 0.00226781 0
1.16058 0.0022173 0
1.15762 0.0021788 0
1.15474 0.0021441 0
1.15195 0.00212024 0
1.14923 0.00209858 0
1.14659 0.00208663 0
1.14403 0.00207536 0
1.14155 0.00207277 0
1.13913 0.00206944 0
1.13679 0.00207391 0
1.13451 0.00207636 0
1.1323 0.0020859 0
1.13015 0.00209228 0
1.12805 0.00210521 0
1.12601 0.002114 0
1.12402 0.00212897 0
1.12208 0.00213894 0
1.12019 0.00215491 0
1.11834 0.00216513 0
1.11652 0.00218131 0
1.11474 0.00219109 0
1.113 0.00220694 0
1.11129 0.00221581 0
1.1096 0.00223099 0
1.10794 0.00223864 0
1.10631 0.00225297 0
1.1047 0.00225927 0
1.10311 0.00227268 0
1.10154 0.00227757 0
1.09999 0.00229011 0
1.09846 0.00229362 0
1.09694 0.00230539 0
1.09543 0.0023076 0
1.09394 0.00231875 0
1.09246 0.00231979 0
1.091 0.00233046 0
1.08954 0.00233045 0
1.0881 0.00234083 0
1.08667 0.00233988 0
1.08524 0.0023501 0
1.08383 0.00234832 0
1.08243 0.0023585 0
1.08104 0.00235597 0
1.07966 0.0023662 0
1.07829 0.00236295 0
1.07693 0.00237326 0
1.07558 0.0023693 0
1.07424 0.00237968 0
1.07291 0.00237495 0
1.07159 0.00238533 0
1.07029 0.00237975 0
1.06899 0.00238998 0
1.06771 0.00238338 0
1.06645 0.00239327 0
1.06519 0.00238545 0
1.06396 0.00239471 0
1.06273 0.0023854 0
1.06153 0.00239368 0
1.06034 0.00238253 0
1.05917 0.00238942 0
1.05802 0.00237603 0
1.05689 0.00238101 0
1.05578 0.0023649 0
1.05469 0.00236739 0
1.05363 0.00234802 0
1.05259 0.00234736 0
1.05158 0.00232412 0
1.05059 0.00231959 0
1.04964 0.00229186 0
1.04872 0.00228274 0
1.04783 0.00224998 0
1.04698 0.00223563 0
1.04617 0.00219762 0
1.04539 0.00217779 0
1.04466 0.00213527 0
1.04398 0.00211083 0
1.04334 0.00206712 0
1.04276 0.00204199 0
1.04226 0.00200706 0
1.04191 0.00199273 0
0.950783 -0.000168319 0
0.909567 -0.000377313 0
0.875498 -0.000616792 0
0.847639 -0.000878576 0
0.825072 -0.00115666 0
0.806947 -0.00144649 0
0.792514 -0.00174526 0
0.781127 -0.00205081 0
0.772243 -0.00236236 0
0.765409 -0.00267915 0
0.760254 -0.00300153 0
0.75648 -0.00332943 0
0.753841 -0.00366375 0
0.752144 -0.00400468 0
0.751234 -0.00435335 0
0.750987 -0.00470992 0
0.751306 -0.00507553 0
0.752116 -0.00545016 0
0.753357 -0.0058348 0
0.754983 -0.00622917 0
0.756959 -0.00663397 0
0.759259 -0.0070486 0
0.761863 -0.00747339 0
0.764758 -0.00790732 0
0.767934 -0.00835028 0
0.771384 -0.0088008 0
0.775105 -0.00925824 0
0.779096 -0.00972062 0
0.783356 -0.0101867 0
0.787887 -0.010654 0
0.79269 -0.0111207 0
0.797769 -0.0115837 0
0.803124 -0.0120406 0
0.808759 -0.0124877 0
0.814675 -0.012922 0
0.820874 -0.0133395 0
0.827357 -0.0137367 0
0.834123 -0.0141091 0
0.841172 -0.0144528 0
0.848501 -0.0147633 0
0.856107 -0.0150366 0
0.863986 -0.0152681 0
0.872131 -0.0154538 0
0.880534 -0.0155897 0
0.889187 -0.015672 0
0.89808 -0.0156973 0
0.907199 -0.0156624 0
0.916533 -0.0155649 0
0.926065 -0.0154025 0
0.93578 -0.0151738 0
0.945661 -0.0148778 0
0.955688 -0.0145142 0
0.965841 -0.0140834 0
0.976101 -0.0135864 0
0.986445 -0.013025 0
0.996851 -0.0124017 0
1.0073 -0.0117195 0
1.01776 -0.0109821 0
1.02821 -0.0101937 0
1.03863 -0.00935931 0
1.049 -0.00848396 0
1.05928 -0.00757351 0
1.06946 -0.00663382 0
1.07951 -0.00567132 0
1.08941 -0.00469228 0
1.09914 -0.00370349 0
1.10867 -0.00271131 0
1.11799 -0.00172257 0
1.12707 -0.000743463 0
1.13588 0.00021942 0
1.14442 0.00116034 0
1.15266 0.00207317 0
1.16059 0.00295286 0
1.16819 0.00379398 0
1.17544 0.00459235 0
1.18232 0.00534335 0
1.18884 0.00604388 0
1.19496 0.00669025 0
1.20069 0.00728051 0
1.20601 0.00781198 0
1.21091 0.00828395 0
1.2154 0.00869474 0
1.21945 0.00904491 0
1.22308 0.00933376 0
1.22627 0.00956311 0
1.22904 0.00973316 0
1.23137 0.00984691 0
1.23327 0.00990534 0
1.23476 0.00991254 0
1.23583 0.00987009 0
1.2365 0.00978302 0
1.23678 0.0096533 0
1.23668 0.00948674 0
1.23621 0.00928545 0
1.2354 0.00905578 0
1.23426 0.00879977 0
1.2328 0.00852412 0
1.23106 0.0082305 0
1.22905 0.00792575 0
1.2268 0.00761096 0
1.22432 0.00729296 0
1.22164 0.00697203 0
1.21878 0.00665484 0
1.21577 0.00634074 0
1.21263 0.00603614 0
1.20938 0.00573939 0
1.20604 0.00545661 0
1.20263 0.00518508 0
1.19917 0.00493066 0
1.19569 0.00468959 0
1.19219 0.00446752 0
1.18869 0.00425974 0
1.1852 0.00407175 0
1.18174 0.00389795 0
1.17833 0.00374383 0
1.17496 0.00360302 0
1.17164 0.00348109 0
1.16839 0.00337098 0
1.16521 0.00327846 0
1.16209 0.00319591 0
1.15906 0.00312936 0
1.1561 0.0030707 0
1.15322 0.00302635 0
1.15042 0.00298776 0
1.1477 0.00296177 0
1.14506 0.00293946 0
1.14249 0.00292816 0
1.14 0.00291859 0
1.13758 0.0029186 0
1.13524 0.00291857 0
1.13296 0.00292691 0
1.13074 0.00293364 0
1.12858 0.00294777 0
1.12649 0.00295892 0
1.12444 0.00297674 0
1.12245 0.00299042 0
1.12051 0.00301027 0
1.11861 0.00302499 0
1.11676 0.0030456 0
1.11494 0.00306025 0
1.11316 0.0030807 0
1.11142 0.00309448 0
1.1097 0.00311416 0
1.10802 0.00312655 0
1.10636 0.00314508 0
1.10473 0.00315579 0
1.10312 0.00317301 0
1.10153 0.0031819 0
1.09996 0.00319779 0
1.09841 0.00320487 0
1.09688 0.00321953 0
1.09536 0.00322489 0
1.09386 0.00323848 0
1.09237 0.00324226 0
1.09089 0.00325499 0
1.08943 0.00325737 0
1.08798 0.00326946 0
1.08654 0.00327062 0
1.08511 0.00328228 0
1.08369 0.00328237 0
1.08229 0.00329378 0
1.08089 0.00329294 0
1.07951 0.00330423 0
1.07813 0.00330254 0
1.07676 0.00331379 0
1.07541 0.00331129 0
1.07407 0.00332251 0
1.07273 0.00331916 0
1.07141 0.0033303 0
1.0701 0.003326 0
1.0688 0.0033369 0
1.06751 0.00333147 0
1.06624 0.0033419 0
1.06498 0.00333508 0
1.06374 0.00334471 0
1.06251 0.00333615 0
1.06129 0.00334456 0
1.06009 0.00333383 0
1.05891 0.00334048 0
1.05775 0.00332704 0
1.05661 0.00333129 0
1.05548 0.00331452 0
1.05438 0.00331562 0
1.0533 0.00329478 0
1.05224 0.00329188 0
1.05121 0.00326615 0
1.05021 0.00325829 0
1.04923 0.00322679 0
1.04828 0.00321298 0
1.04737 0.00317485 0
1.04649 0.00315413 0
1.04564 0.00310871 0
1.04484 0.00308046 0
1.04407 0.00302788 0
1.04334 0.00299245 0
1.04266 0.00293495 0
1.04203 0.00289545 0
1.04146 0.00284089 0
1.04096 0.00280756 0
1.04061 0.00277793 0
0.950722 -0.000215816 0
0.90946 -0.000483794 0
0.875355 -0.00079077 0
0.84747 -0.00112643 0
0.824883 -0.00148284 0
0.806743 -0.00185451 0
0.792298 -0.00223739 0
0.780901 -0.0026293 0
0.772008 -0.00302861 0
0.765165 -0.00343508 0
0.760003 -0.00384837 0
0.756219 -0.00426926 0
0.753571 -0.00469802 0
0.751864 -0.00513589 0
0.750944 -0.00558327 0
0.750686 -0.00604151 0
0.750993 -0.0065109 0
0.751791 -0.00699266 0
0.753019 -0.00748682 0
0.754632 -0.00799432 0
0.756595 -0.00851478 0
0.758881 -0.00904873 0
0.761473 -0.00959532 0
0.764356 -0.0101545 0
0.76752 -0.010725 0
0.77096 -0.011306 0
0.774672 -0.0118956 0
0.778655 -0.0124924 0
0.78291 -0.0130936 0
0.787438 -0.0136972 0
0.792241 -0.0142997 0
0.797321 -0.0148982 0
0.802681 -0.0154884 0
0.808324 -0.0160667 0
0.814253 -0.0166283 0
0.820468 -0.0171686 0
0.82697 -0.0176824 0
0.83376 -0.0181646 0
0.840837 -0.0186094 0
0.848198 -0.0190116 0
0.85584 -0.0193652 0
0.863759 -0.019665 0
0.871947 -0.0199053 0
0.880398 -0.0200811 0
0.889101 -0.0201872 0
0.898046 -0.0202193 0
0.90722 -0.0201734 0
0.91661 -0.0200461 0
0.9262 -0.0198347 0
0.935973 -0.0195371 0
0.945911 -0.0191522 0
0.955994 -0.0186796 0
0.966202 -0.01812 0
0.976514 -0.0174746 0
0.986906 -0.0167459 0
0.997357 -0.0159371 0
1.00784 -0.0150522 0
1.01834 -0.0140961 0
1.02882 -0.0130745 0
1.03926 -0.0119935 0
1.04964 -0.0108602 0
1.05994 -0.00968197 0
1.07012 -0.00846667 0
1.08017 -0.00722236 0
1.09005 -0.00595762 0
1.09976 -0.00468079 0
1.10927 -0.00340066 0
1.11855 -0.00212549 0
1.12758 -0.000863909 0
1.13635 0.000376254 0
1.14483 0.00158687 0
1.15301 0.00276089 0
1.16087 0.00389095 0
1.16839 0.00497104 0
1.17556 0.00599483 0
1.18237 0.00695756 0
1.1888 0.0078541 0
1.19483 0.0086811 0
1.20047 0.00943472 0
1.2057 0.0101132 0
1.21051 0.0107139 0
1.21489 0.0112368 0
1.21885 0.0116807 0
1.22239 0.0120468 0
1.22548 0.0123353 0
1.22815 0.0125492 0
1.2304 0.0126895 0
1.23221 0.0127606 0
1.23362 0.0127647 0
1.23461 0.0127072 0
1.2352 0.0125909 0
1.2354 0.0124225 0
1.23523 0.012205 0
1.2347 0.0119459 0
1.23383 0.0116483 0
1.23263 0.0113201 0
1.23113 0.0109644 0
1.22934 0.010589 0
1.22729 0.0101966 0
1.225 0.00979502 0
1.22248 0.00938605 0
1.21978 0.00897737 0
1.21689 0.0085697 0
1.21386 0.00817035 0
1.2107 0.00777887 0
1.20743 0.00740213 0
1.20408 0.00703846 0
1.20066 0.00669425 0
1.19719 0.00636663 0
1.1937 0.00606153 0
1.19019 0.00577495 0
1.18669 0.00551247 0
1.1832 0.00526905 0
1.17974 0.00505005 0
1.17631 0.0048495 0
1.17294 0.00467267 0
1.16962 0.0045128 0
1.16637 0.00437522 0
1.16318 0.0042525 0
1.16006 0.00415016 0
1.15702 0.00406023 0
1.15406 0.00398848 0
1.15118 0.00392653 0
1.14837 0.00388052 0
1.14565 0.00384169 0
1.143 0.00381663 0
1.14043 0.00379625 0
1.13794 0.00378764 0