# vtk DataFile Version 3.0
Flow field at step 1100
ASCII
DATASET STRUCTURED_GRID
DIMENSIONS 200 100 1
POINTS 20000 float
0.005 0.005 0
0.015 0.005 0
0.025 0.005 0
0.035 0.005 0
0.045 0.005 0
0.055 0.005 0
0.065 0.005 0
0.075 0.005 0
0.085 0.005 0
0.095 0.005 0
0.105 0.005 0
0.115 0.005 0
0.125 0.005 0
0.135 0.005 0
0.145 0.005 0
0.155 0.005 0
0.165 0.005 0
0.175 0.005 0
0.185 0.005 0
0.195 0.005 0
0.205 0.005 0
0.215 0.005 0
0.225 0.005 0
0.235 0.005 0
0.245 0.005 0
0.255 0.005 0
0.265 0.005 0
0.275 0.005 0
0.285 0.005 0
0.295 0.005 0
0.305 0.005 0
0.315 0.005 0
0.325 0.005 0
0.335 0.005 0
0.345 0.005 0
0.355 0.005 0
0.365 0.005 0
0.375 0.005 0
0.385 0.005 0
0.395 0.005 0
0.405 0.005 0
0.415 0.005 0
0.425 0.005 0
0.435 0.005 0
0.445 0.005 0
0.455 0.005 0
0.465 0.005 0
0.475 0.005 0
0.485 0.005 0
0.495 0.005 0
0.505 0.005 0
0.515 0.005 0
0.525 0.005 0
0.535 0.005 0
0.545 0.005 0
0.555 0.005 0
0.565 0.005 0
0.575 0.005 0
0.585 0.005 0
0.595 0.005 0
0.605 0.005 0
0.615 0.005 0
0.625 0.005 0
0.635 0.005 0
0.645 0.005 0
0.655 0.005 0
0.665 0.005 0
0.675 0.005 0
0.685 0.005 0
0.695 0.005 0
0.705 0.005 0
0.715 0.005 0
0.725 0.005 0
0.735 0.005 0
0.745 0.005 0
0.755 0.005 0
0.765 0.005 0
0.775 0.005 0
0.785 0.005 0
0.795 0.005 0
0.805 0.005 0
0.815 0.005 0
0.825 0.005 0
0.835 0.005 0
0.845 0.005 0
0.855 0.005 0
0.865 0.005 0
0.875 0.005 0
0.885 0.005 0
0.895 0.005 0
0.905 0.005 0
0.915 0.005 0
0.925 0.005 0
0.935 0.005 0
0.945 0.005 0
0.955 0.005 0
0.965 0.005 0
0.975 0.005 0
0.985 0.005 0
0.995 0.005 0
1.005 0.005 0
1.015 0.005 0
1.025 0.005 0
1.035 0.005 0
1.045 0.005 0
1.055 0.005 0
1.065 0.005 0
1.075 0.005 0
1.085 0.005 0
1.095 0.005 0
1.105 0.005 0
1.115 0.005 0
1.125 0.005 0
1.135 0.005 0
1.145 0.005 0
1.155 0.005 0
1.165 0.005 0
1.175 0.005 0
1.185 0.005 0
1.195 0.005 0
1.205 0.005 0
1.215 0.005 0
1.225 0.005 0
1.235 0.005 0
1.245 0.005 0
1.255 0.005 0
1.265 0.005 0
1.275 0.005 0
1.285 0.005 0
1.295 0.005 0
1.305 0.005 0
1.315 0.005 0
1.325 0.005 0
1.335 0.005 0
1.345 0.005 0
1.355 0.005 0
1.365 0.005 0
1.375 0.005 0
1.385 0.005 0
1.395 0.005 0
1.405 0.005 0
1.415 0.005 0
1.425 0.005 0
1.435 0.005 0
1.445 0.005 0
1.455 0.005 0
1.465 0.005 0
1.475 0.005 0
1.485 0.005 0
1.495 0.005 0
1.505 0.005 0
1.515 0.005 0
1.525 0.005 0
1.535 0.005 0
1.545 0.005 0
1.555 0.005 0
1.565 0.005 0
1.575 0.005 0
1.585 0.005 0
1.595 0.005 0
1.605 0.005 0
1.615 0.005 0
1.625 0.005 0
1.635 0.005 0
1.645 0.005 0
1.655 0.005 0
1.665 0.005 0
1.675 0.005 0
1.685 0.005 0
1.695 0.005 0
1.705 0.005 0
1.715 0.005 0
1.725 0.005 0
1.735 0.005 0
1.745 0.005 0
1.755 0.005 0
1.765 0.005 0
1.775 0.005 0
1.785 0.005 0
1.795 0.005 0
1.805 0.005 0
1.815 0.005 0
1.825 0.005 0
1.835 0.005 0
1.845 0.005 0
1.855 0.005 0
1.865 0.005 0
1.875 0.005 0
1.885 0.005 0
1.895 0.005 0
1.905 0.005 0
1.915 0.005 0
1.925 0.005 0
1.935 0.005 0
1.945 0.005 0
1.955 0.005 0
1.965 0.005 0
1.975 0.005 0
1.985 0.005 0
1.995 0.005 0
0.005 0.015 0
0.015 0.015 0
0.025 0.015 0
0.035 0.015 0
0.045 0.015 0
0.055 0.015 0
0.065 0.015 0
0.075 0.015 0
0.085 0.015 0
0.095 0.015 0
0.105 0.015 0
0.115 0.015 0
0.125 0.015 0
0.135 0.015 0
0.145 0.015 0
0.155 0.015 0
0.165 0.015 0
0.175 0.015 0
0.185 0.015 0
0.195 0.015 0
0.205 0.015 0
0.215 0.015 0
0.225 0.015 0
0.235 0.015 0
0.245 0.015 0
0.255 0.015 0
0.265 0.015 0
0.275 0.015 0
0.285 0.015 0
0.295 0.015 0
0.305 0.015 0
0.315 0.015 0
0.325 0.015 0
0.335 0.015 0
0.345 0.015 0
0.355 0.015 0
0.365 0.015 0
0.375 0.015 0
0.385 0.015 0
0.395 0.015 0
0.405 0.015 0
0.415 0.015 0
0.425 0.015 0
0.435 0.015 0
0.445 0.015 0
0.455 0.015 0
0.465 0.015 0
0.475 0.015 0
0.485 0.015 0
0.495 0.015 0
0.505 0.015 0
0.515 0.015 0
0.525 0.015 0
0.535 0.015 0
0.545 0.015 0
0.555 0.015 0
0.565 0.015 0
0.575 0.015 0
0.585 0.015 0
0.595 0.015 0
0.605 0.015 0
0.615 0.015 0
0.625 0.015 0
0.635 0.015 0
0.645 0.015 0
0.655 0.015 0
0.665 0.015 0
0.675 0.015 0
0.685 0.015 0
0.695 0.015 0
0.705 0.015 0
0.715 0.015 0
0.725 0.015 0
0.735 0.015 0
0.745 0.015 0
0.755 0.015 0
0.765 0.015 0
0.775 0.015 0
0.785 0.015 0
0.795 0.015 0
0.805 0.015 0
0.815 0.015 0
0.825 0.015 0
0.835 0.015 0
0.845 0.015 0
0.855 0.015 0
0.865 0.015 0
0.875 0.015 0
0.885 0.015 0
0.895 0.015 0
0.905 0.015 0
0.915 0.015 0
0.925 0.015 0
0.935 0.015 0
0.945 0.015 0
0.955 0.015 0
0.965 0.015 0
0.975 0.015 0
0.985 0.015 0
0.995 0.015 0
1.005 0.015 0
1.015 0.015 0
1.025 0.015 0
1.035 0.015 0
1.045 0.015 0
1.055 0.015 0
1.065 0.015 0
1.075 0.015 0
1.085 0.015 0
1.095 0.015 0
1.105 0.015 0
1.115 0.015 0
1.125 0.015 0
1.135 0.015 0
1.145 0.015 0
1.155 0.015 0
1.165 0.015 0
1.175 0.015 0
1.185 0.015 0
1.195 0.015 0
1.205 0.015 0
1.215 0.015 0
1.225 0.015 0
1.235 0.015 0
1.245 0.015 0
1.255 0.015 0
1.265 0.015 0
1.275 0.015 0
1.285 0.015 0
1.295 0.015 0
1.305 0.015 0
1.315 0.015 0
1.325 0.015 0
1.335 0.015 0
1.345 0.015 0
1.355 0.015 0
1.365 0.015 0
1.375 0.015 0
1.385 0.015 0
1.395 0.015 0
1.405 0.015 0
1.415 0.015 0
1.425 0.015 0
1.435 0.015 0
1.445 0.015 0
1.455 0.015 0
1.465 0.015 0
1.475 0.015 0
1.485 0.015 0
1.495 0.015 0
1.505 0.015 0
1.515 0.015 0
1.525 0.015 0
1.535 0.015 0
1.545 0.015 0
1.555 0.015 0
1.565 0.015 0
1.575 0.015 0
1.585 0.015 0
1.595 0.015 0
1.605 0.015 0
1.615 0.015 0
1.625 0.015 0
1.635 0.015 0
1.645 0.015 0
1.655 0.015 0
1.665 0.015 0
1.675 0.015 0
1.685 0.015 0
1.695 0.015 0
1.705 0.015 0
1.715 0.015 0
1.725 0.015 0
1.735 0.015 0
1.745 0.015 0
1.755 0.015 0
1.765 0.015 0
1.775 0.015 0
1.785 0.015 0
1.795 0.015 0
1.805 0.015 0
1.815 0.015 0
1.825 0.015 0
1.835 0.015 0
1.845 0.015 0
1.855 0.015 0
1.865 0.015 0
1.875 0.015 0
1.885 0.015 0
1.895 0.015 0
1.905 0.015 0
1.915 0.015 0
1.925 0.015 0
1.935 0.015 0
1.945 0.015 0
1.955 0.015 0
1.965 0.015 0
1.975 0.015 0
1.985 0.015 0
1.995 0.015 0
0.005 0.025 0
0.015 0.025 0
0.025 0.025 0
0.035 0.025 0
0.045 0.025 0
0.055 0.025 0
0.065 0.025 0
0.075 0.025 0
0.085 0.025 0
0.095 0.025 0
0.105 0.025 0
0.115 0.025 0
0.125 0.025 0
0.135 0.025 0
0.145 0.025 0
0.155 0.025 0
0.165 0.025 0
0.175 0.025 0
0.185 0.025 0
0.195 0.025 0
0.205 0.025 0
0.215 0.025 0
0.225 0.025 0
0.235 0.025 0
0.245 0.025 0
0.255 0.025 0
0.265 0.025 0
0.275 0.025 0
0.285 0.025 0
0.295 0.025 0
0.305 0.025 0
0.315 0.025 0
0.325 0.025 0
0.335 0.025 0
0.345 0.025 0
0.355 0.025 0
0.365 0.025 0
0.375 0.025 0
0.385 0.025 0
0.395 0.025 0
0.405 0.025 0
0.415 0.025 0
0.425 0.025 0
0.435 0.025 0
0.445 0.025 0
0.455 0.025 0
0.465 0.025 0
0.475 0.025 0
0.485 0.025 0
0.495 0.025 0
0.505 0.025 0
0.515 0.025 0
0.525 0.025 0
0.535 0.025 0
0.545 0.025 0
0.555 0.025 0
0.565 0.025 0
0.575 0.025 0
0.585 0.025 0
0.595 0.025 0
0.605 0.025 0
0.615 0.025 0
0.625 0.025 0
0.635 0.025 0
0.645 0.025 0
0.655 0.025 0
0.665 0.025 0
0.675 0.025 0
0.685 0.025 0
0.695 0.025 0
0.705 0.025 0
0.715 0.025 0
0.725 0.025 0
0.735 0.025 0
0.745 0.025 0
0.755 0.025 0
0.765 0.025 0
0.775 0.025 0
0.785 0.025 0
0.795 0.025 0
0.805 0.025 0
0.815 0.025 0
0.825 0.025 0
0.835 0.025 0
0.845 0.025 0
0.855 0.025 0
0.865 0.025 0
0.875 0.025 0
0.885 0.025 0
0.895 0.025 0
0.905 0.025 0
0.915 0.025 0
0.925 0.025 0
0.935 0.025 0
0.945 0.025 0
0.955 0.025 0
0.965 0.025 0
0.975 0.025 0
0.985 0.025 0
0.995 0.025 0
1.005 0.025 0
1.015 0.025 0
1.025 0.025 0
1.035 0.025 0
1.045 0.025 0
1.055 0.025 0
1.065 0.025 0
1.075 0.025 0
1.085 0.025 0
1.095 0.025 0
1.105 0.025 0
1.115 0.025 0
1.125 0.025 0
1.135 0.025 0
1.145 0.025 0
1.155 0.025 0
1.165 0.025 0
1.175 0.025 0
1.185 0.025 0
1.195 0.025 0
1.205 0.025 0
1.215 0.025 0
1.225 0.025 0
1.235 0.025 0
1.245 0.025 0
1.255 0.025 0
1.265 0.025 0
1.275 0.025 0
1.285 0.025 0
1.295 0.025 0
1.305 0.025 0
1.315 0.025 0
1.325 0.025 0
1.335 0.025 0
1.345 0.025 0
1.355 0.025 0
1.365 0.025 0
1.375 0.025 0
1.385 0.025 0
1.395 0.025 0
1.405 0.025 0
1.415 0.025 0
1.425 0.025 0
1.435 0.025 0
1.445 0.025 0
1.455 0.025 0
1.465 0.025 0
1.475 0.025 0
1.485 0.025 0
1.495 0.025 0
1.505 0.025 0
1.515 0.025 0
1.525 0.025 0
1.535 0.025 0
1.545 0.025 0
1.555 0.025 0
1.565 0.025 0
1.575 0.025 0
1.585 0.025 0
1.595 0.025 0
1.605 0.025 0
1.615 0.025 0
1.625 0.025 0
1.635 0.025 0
1.645 0.025 0
1.655 0.025 0
1.665 0.025 0
1.675 0.025 0
1.685 0.025 0
1.695 0.025 0
1.705 0.025 0
1.715 0.025 0
1.725 0.025 0
1.735 0.025 0
1.745 0.025 0
1.755 0.025 0
1.765 0.025 0
1.775 0.025 0
1.785 0.025 0
1.795 0.025 0
1.805 0.025 0
1.815 0.025 0
1.825 0.025 0
1.835 0.025 0
1.845 0.025 0
1.855 0.025 0
1.865 0.025 0
1.875 0.025 0
1.885 0.025 0
1.895 0.025 0
1.905 0.025 0
1.915 0.025 0
1.925 0.025 0
1.935 0.025 0
1.945 0.025 0
1.955 0.025 0
1.965 0.025 0
1.975 0.025 0
1.985 0.025 0
1.995 0.025 0
0.005 0.035 0
0.015 0.035 0
0.025 0.035 0
0.035 0.035 0
0.045 0.035 0
0.055 0.035 0
0.065 0.035 0
0.075 0.035 0
0.085 0.035 0
0.095 0.035 0
0.105 0.035 0
0.115 0.035 0
0.125 0.035 0
0.135 0.035 0
0.145 0.035 0
0.155 0.035 0
0.165 0.035 0
0.175 0.035 0
0.185 0.035 0
0.195 0.035 0
0.205 0.035 0
0.215 0.035 0
0.225 0.035 0
0.235 0.035 0
0.245 0.035 0
0.255 0.035 0
0.265 0.035 0
0.275 0.035 0
0.285 0.035 0
0.295 0.035 0
0.305 0.035 0
0.315 0.035 0
0.325 0.035 0
0.335 0.035 0
0.345 0.035 0
0.355 0.035 0
0.365 0.035 0
0.375 0.035 0
0.385 0.035 0
0.395 0.035 0
0.405 0.035 0
0.415 0.035 0
0.425 0.035 0
0.435 0.035 0
0.445 0.035 0
0.455 0.035 0
0.465 0.035 0
0.475 0.035 0
0.485 0.035 0
0.495 0.035 0
0.505 0.035 0
0.515 0.035 0
0.525 0.035 0
0.535 0.035 0
0.545 0.035 0
0.555 0.035 0
0.565 0.035 0
0.575 0.035 0
0.585 0.035 0
0.595 0.035 0
0.605 0.035 0
0.615 0.035 0
0.625 0.035 0
0.635 0.035 0
0.645 0.035 0
0.655 0.035 0
0.665 0.035 0
0.675 0.035 0
0.685 0.035 0
0.695 0.035 0
0.705 0.035 0
0.715 0.035 0
0.725 0.035 0
0.735 0.035 0
0.745 0.035 0
0.755 0.035 0
0.765 0.035 0
0.775 0.035 0
0.785 0.035 0
0.795 0.035 0
0.805 0.035 0
0.815 0.035 0
0.825 0.035 0
0.835 0.035 0
0.845 0.035 0
0.855 0.035 0
0.865 0.035 0
0.875 0.035 0
0.885 0.035 0
0.895 0.035 0
0.905 0.035 0
0.915 0.035 0
0.925 0.035 0
0.935 0.035 0
0.945 0.035 0
0.955 0.035 0
0.965 0.035 0
0.975 0.035 0
0.985 0.035 0
0.995 0.035 0
1.005 0.035 0
1.015 0.035 0
1.025 0.035 0
1.035 0.035 0
1.045 0.035 0
[...]
POINT_DATA 20000
VECTORS velocity float
0.963294 -1.93817e-05 0
0.931697 -4.39682e-05 0
0.904655 -7.26995e-05 0
0.881603 -0.000104779 0
0.862006 -0.000139436 0
0.845375 -0.000176269 0
0.831278 -0.000214737 0
0.819342 -0.000254749 0
0.809249 -0.000295933 0
0.800732 -0.000338389 0
0.793568 -0.000381885 0
0.787575 -0.000426588 0
0.782601 -0.000472411 0
0.778523 -0.000519467 0
0.775238 -0.000567847 0
0.772664 -0.000617492 0
0.770733 -0.000668721 0
0.769391 -0.000721201 0
0.768591 -0.000775526 0
0.768297 -0.000831001 0
0.768478 -0.000888547 0
0.76911 -0.000947024 0
0.770171 -0.00100773 0
0.771646 -0.00106901 0
0.773519 -0.00113258 0
0.77578 -0.00119622 0
0.778419 -0.00126208 0
0.781429 -0.00132736 0
0.784801 -0.00139465 0
0.788532 -0.00146052 0
0.792615 -0.00152804 0
0.797047 -0.00159316 0
0.801824 -0.00165942 0
0.806941 -0.00172212 0
0.812394 -0.00178531 0
0.81818 -0.00184364 0
0.824293 -0.00190168 0
0.830729 -0.00195347 0
0.837482 -0.00200411 0
0.844545 -0.00204703 0
0.851912 -0.00208792 0
0.859573 -0.00211962 0
0.86752 -0.00214841 0
0.875741 -0.00216663 0
0.884227 -0.00218119 0
0.892963 -0.00218392 0
0.901937 -0.00218241 0
0.911133 -0.00216803 0
0.920535 -0.0021491 0
0.930125 -0.00211652 0
0.939886 -0.00207943 0
0.949799 -0.00202823 0
0.959842 -0.0019729 0
0.969995 -0.00190338 0
0.980236 -0.00183051 0
0.990543 -0.0017437 0
1.00089 -0.00165474 0
1.01126 -0.00155242 0
1.02163 -0.00144949 0
1.03196 -0.00133408 0
1.04225 -0.00121995 0
1.05245 -0.00109443 0
1.06256 -0.000972298 0
1.07254 -0.000840027 0
1.08238 -0.000713457 0
1.09205 -0.000578037 0
1.10152 -0.000450726 0
1.11078 -0.000315821 0
1.1198 -0.000191457 0
1.12857 -6.06333e-05 0
1.13707 5.72717e-05 0
1.14526 0.000180703 0
1.15315 0.000288956 0
1.16071 0.000402071 0
1.16792 0.000497921 0
1.17477 0.000598295 0
1.18124 0.000679538 0
1.18734 0.000765333 0
1.19303 0.00083038 0
1.19832 0.000900404 0
1.20319 0.000948333 0
1.20765 0.00100207 0
1.21167 0.00103264 0
1.21527 0.00107026 0
1.21844 0.00108391 0
1.22117 0.00110622 0
1.22348 0.00110402 0
1.22537 0.00111242 0
1.22684 0.00109599 0
1.2279 0.0010924 0
1.22856 0.00106384 0
1.22883 0.00105055 0
1.22872 0.00101227 0
1.22826 0.000991842 0
1.22745 0.000946479 0
1.22632 0.000921559 0
1.22488 0.000871778 0
1.22316 0.000844987 0
1.22117 0.000793364 0
1.21894 0.000767136 0
1.21649 0.000716027 0
1.21384 0.000692505 0
1.21101 0.000643939 0
1.20804 0.000624885 0
1.20492 0.000580498 0
1.2017 0.000567248 0
1.19839 0.000528252 0
1.195 0.000521697 0
1.19156 0.000488878 0
1.18808 0.000489489 0
1.18457 0.000463237 0
1.18106 0.000471104 0
1.17755 0.000451466 0
1.17405 0.000466361 0
1.17058 0.000453108 0
1.16713 0.000474552 0
1.16373 0.000467242 0
1.16036 0.000494578 0
1.15705 0.000492628 0
1.15378 0.000525084 0
1.15057 0.000527829 0
1.14741 0.000564571 0
1.1443 0.000571313 0
1.14125 0.000611496 0
1.13825 0.000621546 0
1.13529 0.000664342 0
1.13239 0.000677043 0
1.12953 0.000721668 0
1.12672 0.000736418 0
1.12394 0.000782142 0
1.1212 0.000798403 0
1.1185 0.000844563 0
1.11582 0.00086186 0
1.11317 0.000907855 0
1.11055 0.000925779 0
1.10794 0.000971074 0
1.10535 0.000989275 0
1.10278 0.00103339 0
1.10021 0.00105157 0
1.09765 0.00109409 0
1.0951 0.00111199 0
1.09256 0.00115253 0
1.09001 0.00116994 0
1.08746 0.00120817 0
1.08491 0.00122489 0
1.08236 0.00126053 0
1.0798 0.00127639 0
1.07724 0.00130917 0
1.07467 0.00132401 0
1.07209 0.00135373 0
1.06951 0.00136741 0
1.06692 0.00139386 0
1.06432 0.00140625 0
1.06172 0.00142929 0
1.05911 0.00144025 0
1.0565 0.00145976 0
1.05388 0.00146916 0
1.05125 0.00148506 0
1.04863 0.00149279 0
1.046 0.00150503 0
1.04338 0.00151096 0
1.04075 0.00151955 0
1.03813 0.00152358 0
1.03551 0.00152854 0
1.0329 0.00153058 0
1.0303 0.00153197 0
1.02772 0.00153195 0
1.02514 0.00152989 0
1.02258 0.00152774 0
1.02003 0.00152238 0
1.01751 0.00151804 0
1.015 0.00150957 0
1.01252 0.00150303 0
1.01007 0.00149164 0
1.00764 0.00148291 0
1.00525 0.00146885 0
1.00288 0.00145793 0
1.00056 0.00144145 0
0.998267 0.00142838 0
0.996019 0.00140975 0
0.993814 0.00139458 0
0.991655 0.00137408 0
0.989545 0.00135685 0
0.987488 0.00133478 0
0.985485 0.00131553 0
0.98354 0.00129215 0
0.981657 0.00127094 0
0.979839 0.00124653 0
0.97809 0.00122341 0
0.976413 0.00119824 0
0.974812 0.00117332 0
0.973291 0.00114771 0
0.971856 0.00112127 0
0.970509 0.00109572 0
0.969255 0.00106854 0
0.9681 0.00104407 0
0.967049 0.00101824 0
0.966117 0.000997406 0
0.965335 0.000978185 0
0.9648 0.000967699 0
0.963281 -5.81205e-05 0
0.931675 -0.000131808 0
0.904624 -0.000218005 0
0.881566 -0.000314097 0
0.861964 -0.000418126 0
0.845329 -0.000528403 0
0.831229 -0.00064392 0
0.81929 -0.000763687 0
0.809194 -0.000887374 0
0.800675 -0.00101448 0
0.793509 -0.00114507 0
0.787514 -0.001279 0
0.782538 -0.00141648 0
0.778457 -0.00155762 0
0.77517 -0.0017026 0
0.772593 -0.00185175 0
0.77066 -0.00200503 0
0.769314 -0.00216301 0
0.768512 -0.00232527 0
0.768215 -0.00249262 0
0.768393 -0.00266418 0
0.769022 -0.002841 0
0.770081 -0.00302161 0
0.771552 -0.00320735 0
0.773423 -0.0033961 0
0.775682 -0.00358947 0
0.778319 -0.00378461 0
0.781326 -0.00398345 0
0.784698 -0.00418237 0
0.788428 -0.00438358 0
0.792511 -0.0045827 0
0.796944 -0.00478224 0
0.801722 -0.00497702 0
0.806841 -0.00516989 0
0.812298 -0.00535489 0
0.818087 -0.00553524 0
0.824205 -0.00570423 0
0.830647 -0.00586552 0
0.837407 -0.0060117 0
0.844478 -0.00614693 0
0.851853 -0.00626321 0
0.859523 -0.00636529 0
0.86748 -0.00644466 0
0.875713 -0.00650678 0
0.884211 -0.00654276 0
0.89296 -0.00655888 0
0.901946 -0.00654595 0
0.911155 -0.00651121 0
0.920571 -0.00644528 0
0.930175 -0.00635647 0
0.939949 -0.00623525 0
0.949874 -0.00609111 0
0.95993 -0.00591441 0
0.970095 -0.00571588 0
0.980347 -0.00548575 0
0.990664 -0.00523603 0
1.00102 -0.00495677 0
1.0114 -0.00466127 0
1.02177 -0.00433929 0
1.03211 -0.00400539 0
1.0424 -0.00364889 0
1.0526 -0.00328561 0
1.06271 -0.00290424 0
1.07269 -0.00252179 0
1.08252 -0.00212614 0
1.09218 -0.00173545 0
1.10165 -0.00133655 0
1.1109 -0.000948733 0
1.11991 -0.000557559 0
1.12867 -0.000183438 0
1.13715 0.000189573 0
1.14533 0.000539949 0
1.1532 0.000885342 0
1.16073 0.00120309 0
1.16792 0.00151275 0
1.17475 0.00179048 0
1.18121 0.00205796 0
1.18728 0.00229006 0
1.19295 0.00251074 0
1.19821 0.00269353 0
1.20306 0.00286483 0
1.20749 0.00299666 0
1.21149 0.00311802 0
1.21507 0.0031993 0
1.21821 0.00327217 0
1.22092 0.00330527 0
1.22321 0.00333299 0
1.22508 0.00332206 0
1.22653 0.00330962 0
1.22756 0.00326032 0
1.2282 0.00321406 0
1.22846 0.00313324 0
1.22834 0.00306048 0
1.22786 0.00295579 0
1.22704 0.00286438 0
1.22589 0.00274379 0
1.22445 0.00264171 0
1.22271 0.00251309 0
1.22072 0.00240798 0
1.21848 0.00227871 0
1.21602 0.00217749 0
1.21337 0.0020541 0
1.21054 0.00196271 0
1.20756 0.00185061 0
1.20444 0.00177377 0
1.20122 0.00167713 0
1.1979 0.00161825 0
1.19451 0.00153993 0
1.19107 0.00150115 0
1.18759 0.00144279 0
1.18409 0.00142503 0
1.18057 0.00138712 0
1.17706 0.00139029 0
1.17356 0.00137241 0
1.17009 0.00139553 0
1.16665 0.00139651 0
1.16324 0.00143802 0
1.15988 0.00145617 0
1.15656 0.00151402 0
1.1533 0.00154732 0
1.15008 0.00161925 0
1.14692 0.00166549 0
1.14382 0.00174912 0
1.14076 0.00180607 0
1.13776 0.00189904 0
1.13481 0.00196452 0
1.13191 0.00206456 0
1.12905 0.00213655 0
1.12624 0.00224155 0
1.12346 0.00231817 0
1.12073 0.0024262 0
1.11802 0.00250578 0
1.11535 0.00261511 0
1.1127 0.00269618 0
1.11007 0.00280526 0
1.10747 0.00288652 0
1.10488 0.002994 0
1.10231 0.00307433 0
1.09974 0.00317901 0
1.09719 0.00325743 0
1.09464 0.00335826 0
1.0921 0.00343394 0
1.08955 0.00353 0
1.08701 0.00360219 0
1.08446 0.00369266 0
1.08191 0.00376071 0
1.07936 0.00384487 0
1.0768 0.0039082 0
1.07424 0.00398543 0
1.07166 0.00404353 0
1.06909 0.00411327 0
1.0665 0.00416566 0
1.06391 0.00422744 0
1.06131 0.0042737 0
1.05871 0.00432712 0
1.0561 0.00436688 0
1.05348 0.0044116 0
1.05087 0.00444453 0
1.04825 0.00448031 0
1.04563 0.00450612 0
1.04301 0.0045328 0
1.04039 0.00455127 0
1.03778 0.00456876 0
1.03517 0.00457973 0
1.03256 0.00458804 0
1.02997 0.0045914 0
1.02739 0.00459064 0
1.02482 0.00458635 0
1.02226 0.00457671 0
1.01973 0.00456482 0
1.01721 0.00454658 0
1.01471 0.00452721 0
1.01224 0.00450074 0
1.00979 0.00447407 0
1.00737 0.00443982 0
1.00499 0.00440609 0
1.00263 0.00436458 0
1.00031 0.00432411 0
0.998029 0.00427589 0
0.995788 0.00422902 0
0.99359 0.00417469 0
0.991438 0.00412181 0
0.989335 0.00406198 0
0.987284 0.00400346 0
0.985288 0.00393873 0
0.98335 0.00387494 0
0.981473 0.00380592 0
0.979661 0.00373723 0
0.977918 0.00366451 0
0.976246 0.00359133 0
0.974651 0.0035156 0
0.973136 0.0034386 0
0.971705 0.0033609 0
0.970363 0.00328151 0
0.969114 0.00320401 0
0.967962 0.00312583 0
0.966916 0.00305378 0
0.965986 0.00298601 0
0.965208 0.00293295 0
0.964675 0.00289869 0
0.963256 -9.67514e-05 0
0.931629 -0.000219438 0
0.904563 -0.00036289 0
0.881492 -0.000522904 0
0.86188 -0.000695992 0
0.845237 -0.000879663 0
0.83113 -0.00107184 0
0.819185 -0.00127135 0
0.809085 -0.00147713 0
0.800561 -0.00168888 0
0.793391 -0.00190621 0
0.787392 -0.0021293 0
0.782411 -0.00235821 0
0.778326 -0.00259328 0
0.775033 -0.00283487 0
0.772452 -0.00308319 0
0.770513 -0.00333886 0
0.769162 -0.00360177 0
0.768353 -0.0038727 0
0.768051 -0.00415108 0
0.768223 -0.00443786 0
0.768846 -0.00473184 0
0.769898 -0.00503412 0
0.771364 -0.00534278 0
0.77323 -0.00565906 0
0.775484 -0.00598022 0
0.778117 -0.00630764 0
0.781122 -0.00663769 0
0.784491 -0.00697188 0
0.78822 -0.00730565 0
0.792303 -0.00764066 0
0.796737 -0.00797137 0
0.801517 -0.00829961 0
0.806641 -0.00861891 0
0.812103 -0.00893127 0
0.817901 -0.00922934 0
0.824029 -0.0095154 0
0.830482 -0.00978126 0
0.837255 -0.0100296 0
0.844341 -0.0102515 0
0.851734 -0.0104502 0
0.859424 -0.0106163 0
0.867401 -0.0107536 0
0.875657 -0.0108525 0
0.884178 -0.0109175 0
0.892952 -0.0109389 0
0.901964 -0.0109225 0
0.9112 -0.0108583 0
0.920642 -0.0107535 0
0.930273 -0.0105983 0
0.940074 -0.0104013 0
0.950025 -0.0101531 0
0.960105 -0.00986375 0
0.970294 -0.00952405 0
0.980568 -0.00914581 0
0.990904 -0.00872004 0
1.00128 -0.00826022 0
1.01167 -0.00775749 0
1.02205 -0.00722693 0
1.0324 -0.00665963 0
1.04269 -0.00607219 0
1.05291 -0.00545544 0
1.06301 -0.00482738 0
1.07299 -0.00417828 0
1.08281 -0.00352743 0
1.09246 -0.00286422 0
1.10191 -0.00220913 0
1.11114 -0.00155036 0
1.12013 -0.000909447 0
1.12885 -0.000273125 0
1.1373 0.000336129 0
1.14545 0.000933327 0
1.15328 0.00149509 0
1.16078 0.00203847 0
1.16793 0.0025392 0
1.17472 0.0030166 0
1.18113 0.00344551 0
1.18715 0.00384775 0
1.19277 0.00419719 0
1.19799 0.00451833 0
1.20279 0.00478399 0
1.20717 0.00502151 0
1.21113 0.00520251 0
1.21465 0.00535727 0
1.21775 0.00545608 0
1.22042 0.0055322 0
1.22266 0.00555439 0
1.22449 0.00555893 0
1.22589 0.00551285 0
1.22689 0.00545537 0
1.2275 0.00535159 0
1.22772 0.00524357 0
1.22756 0.00509425 0
1.22706 0.00494844 0
1.22621 0.00476667 0
1.22504 0.00459629 0
1.22357 0.00439533 0
1.22182 0.00421344 0
1.2198 0.00400598 0
1.21755 0.00382474 0
1.21508 0.00362234 0
1.21242 0.00345246 0
1.20958 0.003265 0
1.20659 0.00311534 0
1.20347 0.00295073 0
1.20024 0.00282803 0
1.19692 0.00269204 0
1.19353 0.00260091 0
1.19009 0.00249718 0
1.18661 0.00244013 0
1.1831 0.00237034 0
1.17959 0.00234805 0
1.17608 0.00231217 0
1.17259 0.00232376 0
1.16911 0.00232036 0
1.16567 0.00236372 0
1.16226 0.00239037 0
1.1589 0.0024625 0
1.15559 0.00251603 0
1.15232 0.00261341 0
1.14911 0.00269024 0
1.14595 0.00280902 0
1.14285 0.00290541 0
1.1398 0.00304171 0
1.13679 0.00315395 0
1.13385 0.00330396 0
1.13094 0.0034285 0
1.12809 0.00358865 0
1.12527 0.0037222 0
1.1225 0.00388918 0
1.11976 0.00402875 0
1.11706 0.00419958 0
1.11439 0.00434252 0
1.11175 0.00451453 0
1.10912 0.00465849 0
1.10652 0.00482934 0
1.10394 0.00497225 0
1.10137 0.00513987 0
1.09881 0.00527997 0
1.09626 0.00544253 0
1.09371 0.00557825 0
1.09117 0.00573417 0
1.08864 0.00586417 0
1.0861 0.00601204 0
1.08356 0.00613512 0
1.08102 0.00627371 0
1.07847 0.00638881 0
1.07592 0.00651704 0
1.07337 0.00662321 0
1.0708 0.00674011 0
1.06823 0.00683653 0
1.06566 0.00694126 0
1.06308 0.00702717 0
1.06049 0.00711901 0
1.0579 0.00719374 0
1.0553 0.00727207 0
1.0527 0.00733505 0
1.05009 0.00739938 0
1.04749 0.00745012 0
1.04488 0.00750008 0
1.04227 0.00753818 0
1.03967 0.00757352 0
1.03707 0.0075987 0
1.03447 0.00761933 0
1.03188 0.0076314 0
1.0293 0.00763735 0
1.02674 0.00763627 0
1.02418 0.00762773 0
1.02164 0.00761356 0
1.01912 0.00759086 0
1.01662 0.00756379 0
1.01413 0.00752741 0
1.01168 0.00748778 0
1.00924 0.00743831 0
1.00684 0.00738655 0
1.00447 0.00732473 0
1.00213 0.00726138 0
0.99982 0.00718802 0
0.997553 0.00711372 0
0.995327 0.00702972 0
0.993143 0.00694514 0
0.991005 0.00685142 0
0.988916 0.00675727 0
0.986879 0.00665477 0
0.984896 0.00655175 0
0.982971 0.0064414 0
0.981106 0.0063302 0
0.979307 0.0062129 0
0.977575 0.00609421 0
0.975915 0.00597093 0
0.97433 0.00584566 0
0.972826 0.0057177 0
0.971405 0.00558745 0
0.970072 0.00545723 0
0.968831 0.00532572 0
0.967688 0.00519886 0
0.966648 0.00507549 0
0.965726 0.00496628 0
0.964952 0.00487503 0
0.964424 0.00481992 0
0.963219 -0.000135224 0
0.931561 -0.000306663 0
0.904471 -0.000507162 0
0.881381 -0.000730716 0
0.861753 -0.00097266 0
0.845098 -0.00122923 0
0.830981 -0.00149789 0
0.819029 -0.0017766 0
0.808921 -0.00206432 0
0.80039 -0.00236018 0
0.793215 -0.00266409 0
0.787208 -0.00297594 0
0.782221 -0.00329607 0
0.778128 -0.00362485 0
0.774829 -0.00396273 0
0.772239 -0.00431033 0
0.770293 -0.00466789 0
0.768933 -0.00503624 0
0.768116 -0.00541515 0
0.767803 -0.00580555 0
0.767967 -0.00620662 0
0.76858 -0.00661932 0
0.769624 -0.00704206 0
0.771082 -0.00747584 0
0.77294 -0.00791814 0
0.775186 -0.00836998 0
0.777814 -0.00882784 0
0.780813 -0.00929271 0
0.784179 -0.00976001 0
0.787905 -0.0102307 0
0.791988 -0.010699 0
0.796424 -0.011166 0
0.801209 -0.0116247 0
0.806338 -0.0120761 0
0.81181 -0.0125124 0
0.817619 -0.0129345 0
0.823761 -0.0133336 0
0.830232 -0.0137108 0
0.837025 -0.0140566 0
0.844135 -0.0143724 0
0.851553 -0.014648 0
0.859271 -0.0148855 0
0.867281 -0.0150743 0
0.875569 -0.0152173 0
0.884126 -0.0153039 0
0.892937 -0.0153381 0
0.901989 -0.0153094 0
0.911264 -0.0152233 0
0.920746 -0.0150696 0
0.930417 -0.0148555 0
0.940258 -0.0145716 0
0.950248 -0.0142268 0
0.960366 -0.0138122 0
0.970589 -0.013339 0
0.980896 -0.0127989 0
0.991262 -0.0122052 0
1.00166 -0.01155 0
1.01208 -0.0108486 0
1.02248 -0.0100938 0
1.03284 -0.00930252 0
1.04314 -0.00846766 0
1.05335 -0.00760801 0
1.06345 -0.00671613 0
1.07342 -0.00581234 0
1.08323 -0.00488859 0
1.09286 -0.00396649 0
1.10228 -0.00303699 0
1.11148 -0.00212275 0
1.12044 -0.00121335 0
1.12912 -0.000332319 0
1.13752 0.000532514 0
1.14562 0.00135691 0
1.1534 0.00215512 0
1.16084 0.0029023 0
1.16793 0.00361511 0
1.17465 0.00426812 0
1.18099 0.00488067 0
1.18695 0.00542676 0
1.1925 0.00592864 0
1.19765 0.00635966 0
1.20238 0.00674515 0
1.20668 0.00705773 0
1.21057 0.00732592 0
1.21402 0.00752145 0
1.21705 0.00767609 0
1.21965 0.0077605 0
1.22183 0.00780968 0
1.22358 0.00779296 0
1.22493 0.00774854 0
1.22587 0.00764416 0
1.22642 0.00752107 0
1.22659 0.00734513 0
1.22639 0.00716045 0
1.22584 0.00693074 0
1.22495 0.00670275 0
1.22375 0.00643776 0
1.22225 0.00618488 0
1.22046 0.00590276 0
1.21843 0.00564262 0
1.21615 0.00536029 0
1.21367 0.00510883 0
1.21098 0.00484118 0
1.20814 0.004612 0
1.20513 0.00437136 0
1.20201 0.00417528 0
1.19877 0.00397107 0
1.19545 0.00381593 0
1.19206 0.00365459 0
1.18861 0.00354528 0
1.18513 0.0034304 0
1.18163 0.00336908 0
1.17811 0.00330169 0
1.1746 0.00328817 0
1.17111 0.00326718 0
1.16764 0.00329932 0
1.1642 0.00332195 0
1.16079 0.0033962 0
1.15743 0.00345848 0
1.15412 0.00357029 0
1.15086 0.00366747 0
1.14765 0.00381171 0
1.14449 0.00393867 0
1.14139 0.00410999 0
1.13833 0.00426149 0
1.13534 0.00445457 0
1.13239 0.00462554 0
1.12949 0.00483527 0
1.12663 0.00502093 0
1.12382 0.00524255 0
1.12105 0.0054385 0
1.11832 0.0056677 0
1.11562 0.00586999 0
1.11295 0.00610285 0
1.11031 0.00630797 0
1.10769 0.00654106 0
1.1051 0.00674593 0
1.10252 0.00697618 0
1.09995 0.00717811 0
1.0974 0.00740287 0
1.09486 0.0075995 0
1.09232 0.00781642 0
1.08979 0.0080057 0
1.08726 0.00821273 0
1.08473 0.00839286 0
1.08221 0.00858818 0
1.07967 0.00875758 0
1.07714 0.00893959 0
1.0746 0.00909684 0
1.07206 0.00926412 0
1.06951 0.00940797 0
1.06696 0.00955928 0
1.0644 0.00968861 0
1.06183 0.00982285 0
1.05926 0.00993667 0
1.05668 0.0100529 0
1.0541 0.0101504 0
1.05152 0.0102478 0
1.04893 0.0103281 0
1.04634 0.0104062 0
1.04376 0.0104688 0
1.04117 0.010527 0
1.03858 0.0105714 0
1.036 0.0106095 0
1.03343 0.0106354 0
1.03086 0.0106533 0
1.02831 0.0106607 0
1.02576 0.0106585 0
1.02323 0.0106473 0
1.02071 0.0106254 0
1.01821 0.0105958 0
1.01573 0.0105546 0
1.01327 0.0105071 0
1.01083 0.0104475 0
1.00842 0.0103826 0
1.00604 0.0103053 0
1.00369 0.0102238 0
1.00137 0.01013 0
0.999087 0.0100327 0
0.996841 0.00992344 0
0.994636 0.00981136 0
0.992474 0.00968788 0
0.990357 0.00956203 0
0.988289 0.0094256 0
0.986272 0.009287 0
0.984308 0.00913888 0
0.982402 0.00898855 0
0.980557 0.00882996 0
0.978776 0.00866889 0
0.977061 0.00850107 0
0.975418 0.00833036 0
0.973851 0.00815478 0
0.972361 0.00797606 0
0.970955 0.00779508 0
0.969636 0.00761169 0
0.968409 0.00743039 0
0.967277 0.00725051 0
0.96625 0.00708143 0
0.965336 0.0069259 0
0.964572 0.0068012 0
0.964049 0.00672264 0
0.963169 -0.000173451 0
0.931471 -0.000393362 0
0.904348 -0.000650485 0
0.881233 -0.000937244 0
0.861585 -0.00124747 0
0.844914 -0.00157661 0
0.830784 -0.00192109 0
0.81882 -0.00227868 0
0.808703 -0.00264765 0
0.800164 -0.00302734 0
0.792979 -0.00341722 0
0.786964 -0.0038175 0
0.781968 -0.00422843 0
0.777866 -0.00465057 0
0.774556 -0.00508457 0
0.771956 -0.00553099 0
0.769998 -0.00599069 0
0.768627 -0.00646387 0
0.767798 -0.00695149 0
0.767474 -0.00745315 0
0.767624 -0.00796982 0
0.768226 -0.00850029 0
0.769257 -0.00904546 0
0.770704 -0.00960318 0
0.772551 -0.0101742 0
0.774788 -0.0107553 0
0.777406 -0.0113471 0
0.780399 -0.0119452 0
0.783759 -0.0125499 0
0.787483 -0.0131555 0
0.791566 -0.0137623 0
0.796004 -0.0143632 0
0.800793 -0.0149583 0
0.805932 -0.0155392 0
0.811415 -0.0161059 0
0.81724 -0.0166489 0
0.823401 -0.017168 0
0.829895 -0.0176528 0
0.836715 -0.0181034 0
0.843855 -0.0185085 0
0.851308 -0.0188685 0
0.859065 -0.0191718 0
0.867115 -0.0194196 0
0.875449 -0.0196001 0
0.884053 -0.0197156 0
0.892915 -0.0197545 0
0.902017 -0.0197206 0
0.911346 -0.0196029 0
0.920882 -0.0194072 0
0.930607 -0.0191231 0
0.9405 -0.0187586 0
0.950542 -0.0183046 0
0.960709 -0.0177712 0
0.970979 -0.0171504 0
0.981329 -0.0164549 0
0.991734 -0.0156777 0
1.00217 -0.0148339 0
1.01261 -0.0139175 0
1.02303 -0.0129458 0
1.03341 -0.0119133 0
1.04372 -0.0108395 0
1.05394 -0.00971904 0
1.06403 -0.0085732 0
1.07399 -0.00739642 0
1.08378 -0.00621137 0
1.09338 -0.00501179 0
1.10277 -0.00382148 0
1.11193 -0.00263298 0
1.12083 -0.00147092 0
1.12946 -0.000326163 0
1.1378 0.000776064 0
1.14583 0.00184701 0
1.15354 0.00286104 0
1.1609 0.00383191 0
1.1679 0.00473372 0
1.17454 0.00558303 0
1.18079 0.00635374 0
1.18665 0.00706551 0
1.19211 0.00769203 0
1.19716 0.00825624 0
1.20179 0.00873157 0
1.206 0.0091444 0
1.20979 0.00946772 0
1.21315 0.00973144 0
1.21608 0.00990792 0
1.2186 0.0100306 0
1.22068 0.0100709 0
1.22236 0.0100657 0
1.22362 0.00998531 0
1.22449 0.00986982 0
1.22496 0.00968802 0
1.22507 0.00948305 0
1.2248 0.00922182 0
1.2242 0.00895022 0
1.22326 0.00863296 0
1.22201 0.00831837 0
1.22046 0.00796861 0
1.21864 0.00763414 0
1.21657 0.00727431 0
1.21427 0.00694141 0
1.21175 0.00659179 0
1.20906 0.00627926 0
1.20619 0.00595713 0
1.20318 0.00568047 0
1.20004 0.00539956 0
1.1968 0.00517056 0
1.19347 0.00494084 0
1.19007 0.00476749 0
1.18662 0.00459521 0
1.18314 0.00448189 0
1.17963 0.00436984 0
1.17613 0.00431771 0
1.17262 0.00426574 0
1.16913 0.00427324 0
1.16566 0.00427878 0
1.16222 0.00434223 0
1.15882 0.0044009 0
1.15546 0.0045151 0
1.15215 0.00462128 0
1.14889 0.00478007 0
1.14568 0.00492743 0
1.14253 0.00512413 0
1.13943 0.00530604 0