# vtk DataFile Version 3.0
Flow field at step 1600
ASCII
DATASET STRUCTURED_GRID
DIMENSIONS 200 100 1
POINTS 20000 float
0.005 0.005 0
0.015 0.005 0
0.025 0.005 0
0.035 0.005 0
0.045 0.005 0
0.055 0.005 0
0.065 0.005 0
0.075 0.005 0
0.085 0.005 0
0.095 0.005 0
0.105 0.005 0
0.115 0.005 0
0.125 0.005 0
0.135 0.005 0
0.145 0.005 0
0.155 0.005 0
0.165 0.005 0
0.175 0.005 0
0.185 0.005 0
0.195 0.005 0
0.205 0.005 0
0.215 0.005 0
0.225 0.005 0
0.235 0.005 0
0.245 0.005 0
0.255 0.005 0
0.265 0.005 0
0.275 0.005 0
0.285 0.005 0
0.295 0.005 0
0.305 0.005 0
0.315 0.005 0
0.325 0.005 0
0.335 0.005 0
0.345 0.005 0
0.355 0.005 0
0.365 0.005 0
0.375 0.005 0
0.385 0.005 0
0.395 0.005 0
0.405 0.005 0
0.415 0.005 0
0.425 0.005 0
0.435 0.005 0
0.445 0.005 0
0.455 0.005 0
0.465 0.005 0
0.475 0.005 0
0.485 0.005 0
0.495 0.005 0
0.505 0.005 0
0.515 0.005 0
0.525 0.005 0
0.535 0.005 0
0.545 0.005 0
0.555 0.005 0
0.565 0.005 0
0.575 0.005 0
0.585 0.005 0
0.595 0.005 0
0.605 0.005 0
0.615 0.005 0
0.625 0.005 0
0.635 0.005 0
0.645 0.005 0
0.655 0.005 0
0.665 0.005 0
0.675 0.005 0
0.685 0.005 0
0.695 0.005 0
0.705 0.005 0
0.715 0.005 0
0.725 0.005 0
0.735 0.005 0
0.745 0.005 0
0.755 0.005 0
0.765 0.005 0
0.775 0.005 0
0.785 0.005 0
0.795 0.005 0
0.805 0.005 0
0.815 0.005 0
0.825 0.005 0
0.835 0.005 0
0.845 0.005 0
0.855 0.005 0
0.865 0.005 0
0.875 0.005 0
0.885 0.005 0
0.895 0.005 0
0.905 0.005 0
0.915 0.005 0
0.925 0.005 0
0.935 0.005 0
0.945 0.005 0
0.955 0.005 0
0.965 0.005 0
0.975 0.005 0
0.985 0.005 0
0.995 0.005 0
1.005 0.005 0
1.015 0.005 0
1.025 0.005 0
1.035 0.005 0
1.045 0.005 0
1.055 0.005 0
1.065 0.005 0
1.075 0.005 0
1.085 0.005 0
1.095 0.005 0
1.105 0.005 0
1.115 0.005 0
1.125 0.005 0
1.135 0.005 0
1.145 0.005 0
1.155 0.005 0
1.165 0.005 0
1.175 0.005 0
1.185 0.005 0
1.195 0.005 0
1.205 0.005 0
1.215 0.005 0
1.225 0.005 0
1.235 0.005 0
1.245 0.005 0
1.255 0.005 0
1.265 0.005 0
1.275 0.005 0
1.285 0.005 0
1.295 0.005 0
1.305 0.005 0
1.315 0.005 0
1.325 0.005 0
1.335 0.005 0
1.345 0.005 0
1.355 0.005 0
1.365 0.005 0
1.375 0.005 0
1.385 0.005 0
1.395 0.005 0
1.405 0.005 0
1.415 0.005 0
1.425 0.005 0
1.435 0.005 0
1.445 0.005 0
1.455 0.005 0
1.465 0.005 0
1.475 0.005 0
1.485 0.005 0
1.495 0.005 0
1.505 0.005 0
1.515 0.005 0
1.525 0.005 0
1.535 0.005 0
1.545 0.005 0
1.555 0.005 0
1.565 0.005 0
1.575 0.005 0
1.585 0.005 0
1.595 0.005 0
1.605 0.005 0
1.615 0.005 0
1.625 0.005 0
1.635 0.005 0
1.645 0.005 0
1.655 0.005 0
1.665 0.005 0
1.675 0.005 0
1.685 0.005 0
1.695 0.005 0
1.705 0.005 0
1.715 0.005 0
1.725 0.005 0
1.735 0.005 0
1.745 0.005 0
1.755 0.005 0
1.765 0.005 0
1.775 0.005 0
1.785 0.005 0
1.795 0.005 0
1.805 0.005 0
1.815 0.005 0
1.825 0.005 0
1.835 0.005 0
1.845 0.005 0
1.855 0.005 0
1.865 0.005 0
1.875 0.005 0
1.885 0.005 0
1.895 0.005 0
1.905 0.005 0
1.915 0.005 0
1.925 0.005 0
1.935 0.005 0
1.945 0.005 0
1.955 0.005 0
1.965 0.005 0
1.975 0.005 0
1.985 0.005 0
1.995 0.005 0
0.005 0.015 0
0.015 0.015 0
0.025 0.015 0
0.035 0.015 0
0.045 0.015 0
0.055 0.015 0
0.065 0.015 0
0.075 0.015 0
0.085 0.015 0
0.095 0.015 0
0.105 0.015 0
0.115 0.015 0
0.125 0.015 0
0.135 0.015 0
0.145 0.015 0
0.155 0.015 0
0.165 0.015 0
0.175 0.015 0
0.185 0.015 0
0.195 0.015 0
0.205 0.015 0
0.215 0.015 0
0.225 0.015 0
0.235 0.015 0
0.245 0.015 0
0.255 0.015 0
0.265 0.015 0
0.275 0.015 0
0.285 0.015 0
0.295 0.015 0
0.305 0.015 0
0.315 0.015 0
0.325 0.015 0
0.335 0.015 0
0.345 0.015 0
0.355 0.015 0
0.365 0.015 0
0.375 0.015 0
0.385 0.015 0
0.395 0.015 0
0.405 0.015 0
0.415 0.015 0
0.425 0.015 0
0.435 0.015 0
0.445 0.015 0
0.455 0.015 0
0.465 0.015 0
0.475 0.015 0
0.485 0.015 0
0.495 0.015 0
0.505 0.015 0
0.515 0.015 0
0.525 0.015 0
0.535 0.015 0
0.545 0.015 0
0.555 0.015 0
0.565 0.015 0
0.575 0.015 0
0.585 0.015 0
0.595 0.015 0
0.605 0.015 0
0.615 0.015 0
0.625 0.015 0
0.635 0.015 0
0.645 0.015 0
0.655 0.015 0
0.665 0.015 0
0.675 0.015 0
0.685 0.015 0
0.695 0.015 0
0.705 0.015 0
0.715 0.015 0
0.725 0.015 0
0.735 0.015 0
0.745 0.015 0
0.755 0.015 0
0.765 0.015 0
0.775 0.015 0
0.785 0.015 0
0.795 0.015 0
0.805 0.015 0
0.815 0.015 0
0.825 0.015 0
0.835 0.015 0
0.845 0.015 0
0.855 0.015 0
0.865 0.015 0
0.875 0.015 0
0.885 0.015 0
0.895 0.015 0
0.905 0.015 0
0.915 0.015 0
0.925 0.015 0
0.935 0.015 0
0.945 0.015 0
0.955 0.015 0
0.965 0.015 0
0.975 0.015 0
0.985 0.015 0
0.995 0.015 0
1.005 0.015 0
1.015 0.015 0
1.025 0.015 0
1.035 0.015 0
1.045 0.015 0
1.055 0.015 0
1.065 0.015 0
1.075 0.015 0
1.085 0.015 0
1.095 0.015 0
1.105 0.015 0
1.115 0.015 0
1.125 0.015 0
1.135 0.015 0
1.145 0.015 0
1.155 0.015 0
1.165 0.015 0
1.175 0.015 0
1.185 0.015 0
1.195 0.015 0
1.205 0.015 0
1.215 0.015 0
1.225 0.015 0
1.235 0.015 0
1.245 0.015 0
1.255 0.015 0
1.265 0.015 0
1.275 0.015 0
1.285 0.015 0
1.295 0.015 0
1.305 0.015 0
1.315 0.015 0
1.325 0.015 0
1.335 0.015 0
1.345 0.015 0
1.355 0.015 0
1.365 0.015 0
1.375 0.015 0
1.385 0.015 0
1.395 0.015 0
1.405 0.015 0
1.415 0.015 0
1.425 0.015 0
1.435 0.015 0
1.445 0.015 0
1.455 0.015 0
1.465 0.015 0
1.475 0.015 0
1.485 0.015 0
1.495 0.015 0
1.505 0.015 0
1.515 0.015 0
1.525 0.015 0
1.535 0.015 0
1.545 0.015 0
1.555 0.015 0
1.565 0.015 0
1.575 0.015 0
1.585 0.015 0
1.595 0.015 0
1.605 0.015 0
1.615 0.015 0
1.625 0.015 0
1.635 0.015 0
1.645 0.015 0
1.655 0.015 0
1.665 0.015 0
1.675 0.015 0
1.685 0.015 0
1.695 0.015 0
1.705 0.015 0
1.715 0.015 0
1.725 0.015 0
1.735 0.015 0
1.745 0.015 0
1.755 0.015 0
1.765 0.015 0
1.775 0.015 0
1.785 0.015 0
1.795 0.015 0
1.805 0.015 0
1.815 0.015 0
1.825 0.015 0
1.835 0.015 0
1.845 0.015 0
1.855 0.015 0
1.865 0.015 0
1.875 0.015 0
1.885 0.015 0
1.895 0.015 0
1.905 0.015 0
1.915 0.015 0
1.925 0.015 0
1.935 0.015 0
1.945 0.015 0
1.955 0.015 0
1.965 0.015 0
1.975 0.015 0
1.985 0.015 0
1.995 0.015 0
0.005 0.025 0
0.015 0.025 0
0.025 0.025 0
0.035 0.025 0
0.045 0.025 0
0.055 0.025 0
0.065 0.025 0
0.075 0.025 0
0.085 0.025 0
0.095 0.025 0
0.105 0.025 0
0.115 0.025 0
0.125 0.025 0
0.135 0.025 0
0.145 0.025 0
0.155 0.025 0
0.165 0.025 0
0.175 0.025 0
0.185 0.025 0
0.195 0.025 0
0.205 0.025 0
0.215 0.025 0
0.225 0.025 0
0.235 0.025 0
0.245 0.025 0
0.255 0.025 0
0.265 0.025 0
0.275 0.025 0
0.285 0.025 0
0.295 0.025 0
0.305 0.025 0
0.315 0.025 0
0.325 0.025 0
0.335 0.025 0
0.345 0.025 0
0.355 0.025 0
0.365 0.025 0
0.375 0.025 0
0.385 0.025 0
0.395 0.025 0
0.405 0.025 0
0.415 0.025 0
0.425 0.025 0
0.435 0.025 0
0.445 0.025 0
0.455 0.025 0
0.465 0.025 0
0.475 0.025 0
0.485 0.025 0
0.495 0.025 0
0.505 0.025 0
0.515 0.025 0
0.525 0.025 0
0.535 0.025 0
0.545 0.025 0
0.555 0.025 0
0.565 0.025 0
0.575 0.025 0
0.585 0.025 0
0.595 0.025 0
0.605 0.025 0
0.615 0.025 0
0.625 0.025 0
0.635 0.025 0
0.645 0.025 0
0.655 0.025 0
0.665 0.025 0
0.675 0.025 0
0.685 0.025 0
0.695 0.025 0
0.705 0.025 0
0.715 0.025 0
0.725 0.025 0
0.735 0.025 0
0.745 0.025 0
0.755 0.025 0
0.765 0.025 0
0.775 0.025 0
0.785 0.025 0
0.795 0.025 0
0.805 0.025 0
0.815 0.025 0
0.825 0.025 0
0.835 0.025 0
0.845 0.025 0
0.855 0.025 0
0.865 0.025 0
0.875 0.025 0
0.885 0.025 0
0.895 0.025 0
0.905 0.025 0
0.915 0.025 0
0.925 0.025 0
0.935 0.025 0
0.945 0.025 0
0.955 0.025 0
0.965 0.025 0
0.975 0.025 0
0.985 0.025 0
0.995 0.025 0
1.005 0.025 0
1.015 0.025 0
1.025 0.025 0
1.035 0.025 0
1.045 0.025 0
1.055 0.025 0
1.065 0.025 0
1.075 0.025 0
1.085 0.025 0
1.095 0.025 0
1.105 0.025 0
1.115 0.025 0
1.125 0.025 0
1.135 0.025 0
1.145 0.025 0
1.155 0.025 0
1.165 0.025 0
1.175 0.025 0
1.185 0.025 0
1.195 0.025 0
1.205 0.025 0
1.215 0.025 0
1.225 0.025 0
1.235 0.025 0
1.245 0.025 0
1.255 0.025 0
1.265 0.025 0
1.275 0.025 0
1.285 0.025 0
1.295 0.025 0
1.305 0.025 0
1.315 0.025 0
1.325 0.025 0
1.335 0.025 0
1.345 0.025 0
1.355 0.025 0
1.365 0.025 0
1.375 0.025 0
1.385 0.025 0
1.395 0.025 0
1.405 0.025 0
1.415 0.025 0
1.425 0.025 0
1.435 0.025 0
1.445 0.025 0
1.455 0.025 0
1.465 0.025 0
1.475 0.025 0
1.485 0.025 0
1.495 0.025 0
1.505 0.025 0
1.515 0.025 0
1.525 0.025 0
1.535 0.025 0
1.545 0.025 0
1.555 0.025 0
1.565 0.025 0
1.575 0.025 0
1.585 0.025 0
1.595 0.025 0
1.605 0.025 0
1.615 0.025 0
1.625 0.025 0
1.635 0.025 0
1.645 0.025 0
1.655 0.025 0
1.665 0.025 0
1.675 0.025 0
1.685 0.025 0
1.695 0.025 0
1.705 0.025 0
1.715 0.025 0
1.725 0.025 0
1.735 0.025 0
1.745 0.025 0
1.755 0.025 0
1.765 0.025 0
1.775 0.025 0
1.785 0.025 0
1.795 0.025 0
1.805 0.025 0
1.815 0.025 0
1.825 0.025 0
1.835 0.025 0
1.845 0.025 0
1.855 0.025 0
1.865 0.025 0
1.875 0.025 0
1.885 0.025 0
1.895 0.025 0
1.905 0.025 0
1.915 0.025 0
1.925 0.025 0
1.935 0.025 0
1.945 0.025 0
1.955 0.025 0
1.965 0.025 0
1.975 0.025 0
1.985 0.025 0
1.995 0.025 0
0.005 0.035 0
0.015 0.035 0
0.025 0.035 0
0.035 0.035 0
0.045 0.035 0
0.055 0.035 0
0.065 0.035 0
0.075 0.035 0
0.085 0.035 0
0.095 0.035 0
0.105 0.035 0
0.115 0.035 0
0.125 0.035 0
0.135 0.035 0
0.145 0.035 0
0.155 0.035 0
0.165 0.035 0
0.175 0.035 0
0.185 0.035 0
0.195 0.035 0
0.205 0.035 0
0.215 0.035 0
0.225 0.035 0
0.235 0.035 0
0.245 0.035 0
0.255 0.035 0
0.265 0.035 0
0.275 0.035 0
0.285 0.035 0
0.295 0.035 0
0.305 0.035 0
0.315 0.035 0
0.325 0.035 0
0.335 0.035 0
0.345 0.035 0
0.355 0.035 0
0.365 0.035 0
0.375 0.035 0
0.385 0.035 0
0.395 0.035 0
0.405 0.035 0
0.415 0.035 0
0.425 0.035 0
0.435 0.035 0
0.445 0.035 0
0.455 0.035 0
0.465 0.035 0
0.475 0.035 0
0.485 0.035 0
0.495 0.035 0
0.505 0.035 0
0.515 0.035 0
0.525 0.035 0
0.535 0.035 0
0.545 0.035 0
0.555 0.035 0
0.565 0.035 0
0.575 0.035 0
0.585 0.035 0
0.595 0.035 0
0.605 0.035 0
0.615 0.035 0
0.625 0.035 0
0.635 0.035 0
0.645 0.035 0
0.655 0.035 0
0.665 0.035 0
0.675 0.035 0
0.685 0.035 0
0.695 0.035 0
0.705 0.035 0
0.715 0.035 0
0.725 0.035 0
0.735 0.035 0
0.745 0.035 0
0.755 0.035 0
0.765 0.035 0
0.775 0.035 0
0.785 0.035 0
0.795 0.035 0
0.805 0.035 0
0.815 0.035 0
0.825 0.035 0
0.835 0.035 0
0.845 0.035 0
0.855 0.035 0
0.865 0.035 0
0.875 0.035 0
0.885 0.035 0
0.895 0.035 0
0.905 0.035 0
0.915 0.035 0
0.925 0.035 0
0.935 0.035 0
0.945 0.035 0
0.955 0.035 0
0.965 0.035 0
0.975 0.035 0
0.985 0.035 0
0.995 0.035 0
1.005 0.035 0
1.015 0.035 0
1.025 0.035 0
1.035 0.035 0
1.045 0.035 0
[...]
POINT_DATA 20000
VECTORS velocity float
0.951788 -2.45567e-05 0
0.911325 -5.51163e-05 0
0.877787 -9.01195e-05 0
0.850272 -0.000128497 0
0.827898 -0.000169164 0
0.809849 -0.000211697 0
0.795404 -0.000255338 0
0.78394 -0.00030015 0
0.774934 -0.000345537 0
0.767948 -0.000391895 0
0.762624 -0.000438672 0
0.75867 -0.000486489 0
0.755852 -0.000534765 0
0.753977 -0.000584271 0
0.752896 -0.000634356 0
0.752487 -0.000685892 0
0.752655 -0.000738136 0
0.753324 -0.000792029 0
0.754436 -0.000846723 0
0.755944 -0.000903201 0
0.757814 -0.000960507 0
0.760017 -0.00101964 0
0.762535 -0.00107954 0
0.765351 -0.0011412 0
0.768455 -0.00120344 0
0.771841 -0.00126725 0
0.775502 -0.00133132 0
0.779437 -0.00139663 0
0.783644 -0.00146174 0
0.788123 -0.00152757 0
0.792875 -0.0015926 0
0.7979 -0.00165768 0
0.803202 -0.00172117 0
0.808779 -0.00178391 0
0.814635 -0.00184412 0
0.820769 -0.0019026 0
0.827181 -0.00195749 0
0.83387 -0.00200957 0
0.840836 -0.0020569 0
0.848076 -0.00210028 0
0.855585 -0.00213769 0
0.863359 -0.00216999 0
0.871392 -0.00219512 0
0.879677 -0.00221405 0
0.888205 -0.00222471 0
0.896965 -0.0022282 0
0.905947 -0.00222248 0
0.915137 -0.00220885 0
0.924522 -0.00218531 0
0.934086 -0.00215339 0
0.943812 -0.00211116 0
0.953683 -0.00206045 0
0.96368 -0.00199936 0
0.973783 -0.00193005 0
0.983971 -0.00185067 0
0.994222 -0.00176372 0
1.00452 -0.00166737 0
1.01483 -0.00156446 0
1.02514 -0.00145317 0
1.03542 -0.00133667 0
1.04565 -0.00121307 0
1.05581 -0.00108589 0
1.06587 -0.000953117 0
1.07581 -0.000818594 0
1.08561 -0.000680124 0
1.09524 -0.00054185 0
1.10468 -0.000401329 0
1.11391 -0.000262987 0
1.1229 -0.000124073 0
1.13165 1.07192e-05 0
1.14013 0.000144516 0
1.14831 0.000272364 0
1.15619 0.000397821 0
1.16374 0.00051568 0
1.17095 0.000629984 0
1.1778 0.00073527 0
1.18429 0.000836113 0
1.19039 0.000926787 0
1.1961 0.00101244 0
1.2014 0.00108706 0
1.2063 0.00115641 0
1.21077 0.00121419 0
1.21483 0.00126676 0
1.21846 0.00130753 0
1.22166 0.0013435 0
1.22444 0.00136772 0
1.22679 0.00138783 0
1.22872 0.00139654 0
1.23023 0.00140207 0
1.23134 0.00139679 0
1.23205 0.00138948 0
1.23238 0.00137214 0
1.23233 0.00135405 0
1.23193 0.00132685 0
1.23119 0.00130025 0
1.23013 0.00126554 0
1.22877 0.00123278 0
1.22713 0.00119293 0
1.22522 0.00115632 0
1.22309 0.0011136 0
1.22073 0.00107525 0
1.21819 0.00103171 0
1.21548 0.000993498 0
1.21262 0.000950918 0
1.20964 0.000914371 0
1.20656 0.000874161 0
1.2034 0.000840456 0
1.20018 0.000803672 0
1.19691 0.00077361 0
1.19362 0.00074095 0
1.19032 0.000714986 0
1.18703 0.00068682 0
1.18375 0.000665102 0
1.18051 0.000641522 0
1.1773 0.000623943 0
1.17414 0.000604819 0
1.17104 0.000591078 0
1.168 0.000576117 0
1.16503 0.00056578 0
1.16213 0.000554581 0
1.1593 0.000547129 0
1.15655 0.000539235 0
1.15387 0.000534115 0
1.15127 0.000529052 0
1.14875 0.000525712 0
1.1463 0.000523019 0
1.14392 0.000520936 0
1.14161 0.000520192 0
1.13936 0.000518888 0
1.13718 0.000519723 0
1.13507 0.000518779 0
1.13301 0.000520883 0
1.131 0.000519945 0
1.12905 0.000523069 0
1.12714 0.000521846 0
1.12528 0.0005258 0
1.12346 0.000524062 0
1.12168 0.000528715 0
1.11993 0.000526288 0
1.11821 0.000531554 0
1.11652 0.000528316 0
1.11486 0.000534152 0
1.11322 0.000530023 0
1.11161 0.00053642 0
1.11001 0.000531355 0
1.10842 0.00053833 0
1.10686 0.000532316 0
1.1053 0.000539903 0
1.10375 0.000532948 0
1.10222 0.000541194 0
1.10069 0.000533324 0
1.09917 0.000542282 0
1.09765 0.000533534 0
1.09614 0.000543256 0
1.09464 0.000533676 0
1.09313 0.000544209 0
1.09163 0.000533847 0
1.09013 0.000545229 0
1.08863 0.000534134 0
1.08713 0.000546389 0
1.08563 0.00053461 0
1.08413 0.000547747 0
1.08263 0.000535328 0
1.08114 0.000549337 0
1.07964 0.000536314 0
1.07814 0.000551164 0
1.07665 0.000537568 0
1.07515 0.000553202 0
1.07366 0.000539054 0
1.07217 0.000555392 0
1.07068 0.000540703 0
1.0692 0.000557637 0
1.06772 0.000542407 0
1.06625 0.000559799 0
1.06478 0.000544017 0
1.06332 0.000561699 0
1.06187 0.000545339 0
1.06043 0.000563111 0
1.059 0.000546136 0
1.05758 0.000563765 0
1.05618 0.000546123 0
1.05479 0.000563341 0
1.05342 0.000544966 0
1.05208 0.000561474 0
1.05075 0.000542284 0
1.04945 0.000557751 0
1.04818 0.000537654 0
1.04694 0.000551722 0
1.04573 0.000530628 0
1.04456 0.000542926 0
1.04343 0.000520782 0
1.04234 0.000530942 0
1.04129 0.00050783 0
1.0403 0.00051554 0
1.03936 0.000491932 0
1.03848 0.000497018 0
1.03766 0.000474464 0
1.03692 0.000477054 0
1.03628 0.000459957 0
1.03583 0.00046066 0
0.951772 -7.36403e-05 0
0.911298 -0.000165188 0
0.87775 -0.000270242 0
0.850229 -0.000385113 0
0.827849 -0.00050726 0
0.809797 -0.000634467 0
0.795348 -0.000765656 0
0.783882 -0.000899577 0
0.774873 -0.00103612 0
0.767885 -0.00117457 0
0.76256 -0.00131541 0
0.758604 -0.00145814 0
0.755783 -0.00160359 0
0.753906 -0.00175131 0
0.752823 -0.00190229 0
0.752411 -0.00205603 0
0.752576 -0.0022136 0
0.753243 -0.00237435 0
0.754351 -0.00253938 0
0.755857 -0.00270785 0
0.757723 -0.0028808 0
0.759923 -0.00305721 0
0.762438 -0.00323803 0
0.765251 -0.003422 0
0.768353 -0.00360994 0
0.771736 -0.00380036 0
0.775395 -0.0039939 0
0.779328 -0.0041888 0
0.783534 -0.00438551 0
0.788012 -0.00458201 0
0.792764 -0.00477854 0
0.797791 -0.0049728 0
0.803093 -0.0051648 0
0.808673 -0.00535199 0
0.814532 -0.0055342 0
0.820669 -0.0057086 0
0.827087 -0.00587489 0
0.833782 -0.00603005 0
0.840755 -0.00617368 0
0.848002 -0.00630263 0
0.855521 -0.00641651 0
0.863305 -0.00651211 0
0.871349 -0.00658915 0
0.879645 -0.00664448 0
0.888186 -0.00667807 0
0.896959 -0.0066869 0
0.905955 -0.00667132 0
0.915159 -0.00662857 0
0.924558 -0.00655948 0
0.934136 -0.00646164 0
0.943877 -0.00633648 0
0.953762 -0.00618199 0
0.963772 -0.00600026 0
0.973888 -0.00578973 0
0.984088 -0.00555318 0
0.994351 -0.00528948 0
1.00465 -0.00500212 0
1.01498 -0.00469033 0
1.02529 -0.00435829 0
1.03558 -0.00400551 0
1.04582 -0.00363678 0
1.05598 -0.00325177 0
1.06604 -0.00285582 0
1.07598 -0.0024486 0
1.08577 -0.0020359 0
1.0954 -0.00161726 0
1.10483 -0.0011988 0
1.11405 -0.0007798 0
1.12304 -0.000366609 0
1.13178 4.19213e-05 0
1.14024 0.000439281 0
1.14841 0.000827171 0
1.15627 0.00119901 0
1.1638 0.00155716 0
1.17099 0.00189502 0
1.17782 0.00221571 0
1.18429 0.00251266 0
1.19037 0.00278984 0
1.19605 0.00304069 0
1.20134 0.00327009 0
1.20621 0.00347152 0
1.21066 0.0036508 0
1.21469 0.00380142 0
1.2183 0.00393014 0
1.22148 0.00403046 0
1.22423 0.00411004 0
1.22656 0.00416234 0
1.22847 0.00419591 0
1.22996 0.00420409 0
1.23105 0.00419623 0
1.23174 0.00416551 0
1.23205 0.00412198 0
1.23199 0.00405859 0
1.23157 0.00398597 0
1.23082 0.00389677 0
1.22974 0.00380205 0
1.22837 0.00369415 0
1.22671 0.00358438 0
1.2248 0.00346471 0
1.22265 0.0033466 0
1.22029 0.00322164 0
1.21774 0.00310123 0
1.21502 0.00297666 0
1.21216 0.00285912 0
1.20918 0.00273964 0
1.20609 0.00262908 0
1.20293 0.00251833 0
1.1997 0.00241776 0
1.19643 0.00231828 0
1.19314 0.00222964 0
1.18984 0.00214292 0
1.18654 0.00206716 0
1.18326 0.00199379 0
1.18002 0.00193103 0
1.17681 0.00187086 0
1.17365 0.00182054 0
1.17055 0.00177282 0
1.16751 0.0017339 0
1.16453 0.0016975 0
1.16163 0.00166862 0
1.1588 0.00164215 0
1.15605 0.00162177 0
1.15337 0.00160375 0
1.15077 0.00159029 0
1.14824 0.00157922 0
1.14578 0.00157114 0
1.1434 0.00156562 0
1.14109 0.00156151 0
1.13884 0.00156027 0
1.13666 0.00155886 0
1.13454 0.00156081 0
1.13248 0.00156102 0
1.13048 0.00156525 0
1.12852 0.00156618 0
1.12661 0.00157196 0
1.12475 0.00157291 0
1.12293 0.00157969 0
1.12114 0.00158013 0
1.1194 0.00158753 0
1.11768 0.00158708 0
1.11599 0.00159484 0
1.11433 0.00159326 0
1.11269 0.00160126 0
1.11107 0.0015984 0
1.10947 0.00160661 0
1.10789 0.00160245 0
1.10632 0.00161089 0
1.10476 0.00160546 0
1.10322 0.00161424 0
1.10169 0.00160761 0
1.10016 0.00161685 0
1.09864 0.00160914 0
1.09712 0.00161898 0
1.09561 0.00161033 0
1.09411 0.00162092 0
1.0926 0.00161148 0
1.0911 0.00162295 0
1.0896 0.00161284 0
1.0881 0.0016253 0
1.08661 0.00161465 0
1.08511 0.0016282 0
1.08361 0.00161711 0
1.08212 0.00163177 0
1.08062 0.00162032 0
1.07913 0.0016361 0
1.07763 0.00162431 0
1.07614 0.00164115 0
1.07465 0.00162902 0
1.07316 0.00164681 0
1.07167 0.0016343 0
1.07019 0.00165285 0
1.06871 0.00163985 0
1.06723 0.00165892 0
1.06576 0.0016453 0
1.0643 0.00166457 0
1.06284 0.00165011 0
1.06139 0.0016692 0
1.05996 0.00165364 0
1.05853 0.00167207 0
1.05712 0.00165509 0
1.05572 0.00167231 0
1.05433 0.00165352 0
1.05297 0.00166889 0
1.05162 0.00164785 0
1.0503 0.00166067 0
1.04901 0.00163687 0
1.04774 0.00164635 0
1.0465 0.00161925 0
1.0453 0.00162457 0
1.04413 0.00159364 0
1.043 0.001594 0
1.04191 0.00155886 0
1.04087 0.00155365 0
1.03988 0.00151444 0
1.03895 0.00150362 0
1.03807 0.00146194 0
1.03725 0.00144695 0
1.03651 0.0014082 0
1.03588 0.00139418 0
1.03543 0.00137341 0
0.951741 -0.000122552 0
0.911243 -0.000274961 0
0.877677 -0.000449717 0
0.850142 -0.000641005 0
0.827752 -0.000844127 0
0.809692 -0.00105602 0
0.795238 -0.00127412 0
0.783766 -0.00149728 0
0.774753 -0.00172423 0
0.767761 -0.00195504 0
0.762431 -0.00218909 0
0.758472 -0.00242714 0
0.755646 -0.00266886 0
0.753765 -0.00291533 0
0.752676 -0.00316628 0
0.752259 -0.00342291 0
0.752419 -0.00368485 0
0.753079 -0.00395332 0
0.754182 -0.00422771 0
0.755681 -0.00450918 0
0.757541 -0.00479686 0
0.759735 -0.00509173 0
0.762244 -0.0053926 0
0.765051 -0.00570023 0
0.768148 -0.00601308 0
0.771526 -0.00633161 0
0.775181 -0.0066539 0
0.77911 -0.00698007 0
0.783314 -0.00730777 0
0.787791 -0.00763678 0
0.792542 -0.00796428 0
0.79757 -0.00828968 0
0.802876 -0.00860972 0
0.80846 -0.00892345 0
0.814325 -0.00922719 0
0.82047 -0.00951967 0
0.826898 -0.00979686 0
0.833605 -0.0100573 0
0.840592 -0.0102966 0
0.847855 -0.0105132 0
0.855392 -0.0107028 0
0.863196 -0.0108636 0
0.871261 -0.0109915 0
0.879581 -0.011085 0
0.888146 -0.01114 0
0.896946 -0.0111558 0
0.905969 -0.0111284 0
0.915201 -0.0110578 0
0.924629 -0.0109407 0
0.934236 -0.0107779 0
0.944005 -0.0105669 0
0.953918 -0.0103093 0
0.963955 -0.0100036 0
0.974097 -0.00965231 0
0.984322 -0.00925474 0
0.994607 -0.00881469 0
1.00493 -0.00833209 0
1.01527 -0.00781185 0
1.0256 -0.00725457 0
1.0359 -0.00666611 0
1.04615 -0.00604758 0
1.05631 -0.00540566 0
1.06638 -0.00474177 0
1.07631 -0.00406325 0
1.0861 -0.00337157 0
1.09571 -0.00267454 0
1.10513 -0.00197349 0
1.11434 -0.00127648 0
1.12331 -0.000584462 0
1.13202 9.43904e-05 0
1.14045 0.000759749 0
1.14859 0.00140347 0
1.15642 0.00202604 0
1.16392 0.00261947 0
1.17107 0.0031852 0
1.17786 0.00371553 0
1.18428 0.00421296 0
1.19032 0.00467013 0
1.19596 0.00509071 0
1.2012 0.00546771 0
1.20602 0.00580604 0
1.21043 0.00609906 0
1.21442 0.00635293 0
1.21798 0.00656135 0
1.22111 0.00673173 0
1.22381 0.00685802 0
1.2261 0.00694882 0
1.22796 0.00699828 0
1.22942 0.00701607 0
1.23046 0.00699642 0
1.23112 0.00694994 0
1.23139 0.00687084 0
1.2313 0.00677048 0
1.23085 0.00664293 0
1.23006 0.00650011 0
1.22896 0.0063358 0
1.22756 0.00616228 0
1.22588 0.00597295 0
1.22395 0.00578024 0
1.22178 0.00557707 0
1.21941 0.0053758 0
1.21684 0.00516889 0
1.21411 0.00496841 0
1.21124 0.00476637 0
1.20824 0.00457438 0
1.20515 0.00438408 0
1.20198 0.0042065 0
1.19874 0.00403301 0
1.19547 0.00387392 0
1.19217 0.00372051 0
1.18886 0.00358229 0
1.18556 0.00345063 0
1.18228 0.00333413 0
1.17903 0.00322449 0
1.17582 0.00312934 0
1.17266 0.00304092 0
1.16955 0.00296577 0
1.16651 0.00289694 0
1.16353 0.00283979 0
1.16062 0.0027884 0
1.15779 0.00274685 0
1.15503 0.00271047 0
1.15235 0.00268195 0
1.14975 0.00265806 0
1.14721 0.00263999 0
1.14476 0.00262616 0
1.14237 0.00261612 0
1.14006 0.00261011 0
1.13781 0.00260588 0
1.13562 0.00260569 0
1.1335 0.00260537 0
1.13144 0.00260932 0
1.12943 0.00261129 0
1.12747 0.002618 0
1.12556 0.00262097 0
1.12369 0.00262937 0
1.12187 0.00263233 0
1.12008 0.00264162 0
1.11833 0.00264384 0
1.11661 0.00265349 0
1.11492 0.00265448 0
1.11326 0.00266415 0
1.11162 0.00266363 0
1.11 0.00267317 0
1.1084 0.00267102 0
1.10682 0.00268043 0
1.10525 0.00267665 0
1.1037 0.00268602 0
1.10215 0.00268072 0
1.10062 0.00269024 0
1.09909 0.00268359 0
1.09757 0.00269347 0
1.09606 0.00268569 0
1.09455 0.00269617 0
1.09305 0.00268749 0
1.09155 0.00269881 0
1.09005 0.00268947 0
1.08856 0.00270183 0
1.08706 0.00269203 0
1.08557 0.00270561 0
1.08407 0.00269553 0
1.08258 0.00271044 0
1.08109 0.0027002 0
1.0796 0.0027165 0
1.07811 0.00270618 0
1.07662 0.00272382 0
1.07513 0.00271342 0
1.07365 0.00273231 0
1.07216 0.00272175 0
1.07068 0.00274166 0
1.0692 0.00273079 0
1.06773 0.00275141 0
1.06626 0.00273998 0
1.0648 0.00276089 0
1.06334 0.00274856 0
1.06189 0.00276922 0
1.06045 0.00275555 0
1.05902 0.00277529 0
1.0576 0.00275974 0
1.05619 0.00277779 0
1.0548 0.00275969 0
1.05342 0.00277512 0
1.05206 0.00275372 0
1.05073 0.00276548 0
1.04941 0.00273991 0
1.04812 0.00274684 0
1.04686 0.00271612 0
1.04563 0.00271697 0
1.04443 0.0026801 0
1.04327 0.0026736 0
1.04215 0.00262968 0
1.04107 0.00261472 0
1.04003 0.00256331 0
1.03905 0.00253941 0
1.03812 0.00248141 0
1.03725 0.00244981 0
1.03644 0.00238978 0
1.0357 0.00235615 0
1.03507 0.002308 0
1.03463 0.00228862 0
0.951695 -0.000171232 0
0.911161 -0.000384111 0
0.877568 -0.000628308 0
0.850012 -0.000895414 0
0.827607 -0.00117929 0
0.809535 -0.00147511 0
0.795072 -0.00177999 0
0.783593 -0.0020915 0
0.774573 -0.00240886 0
0.767575 -0.00273105 0
0.762239 -0.00305848 0
0.758273 -0.00339082 0
0.755441 -0.00372913 0
0.753553 -0.00407331 0
0.752456 -0.00442472 0
0.752032 -0.00478322 0
0.752182 -0.00515023 0
0.752834 -0.00552541 0
0.753927 -0.0059101 0
0.755417 -0.00630366 0
0.757268 -0.0067072 0
0.759453 -0.00711972 0
0.761952 -0.00754202 0
0.764751 -0.00797264 0
0.767839 -0.00841202 0
0.771209 -0.00885818 0
0.774858 -0.0093111 0
0.778783 -0.00976823 0
0.782982 -0.010229 0
0.787457 -0.0106904 0
0.792208 -0.0111512 0
0.797238 -0.0116078 0
0.802547 -0.0120584 0
0.808138 -0.0124988 0
0.814012 -0.0129267 0
0.82017 -0.0133374 0
0.826612 -0.0137282 0
0.833337 -0.0140938 0
0.840345 -0.0144315 0
0.847632 -0.0147356 0
0.855196 -0.0150033 0
0.86303 -0.0152288 0
0.871128 -0.0154096 0
0.879483 -0.0155403 0
0.888085 -0.0156185 0
0.896925 -0.0156393 0
0.905988 -0.0156014 0
0.915263 -0.0155004 0
0.924733 -0.015336 0
0.934383 -0.015105 0
0.944195 -0.0148083 0
0.95415 -0.0144436 0
0.964228 -0.0140134 0
0.974409 -0.0135167 0
0.984669 -0.0129574 0
0.994988 -0.0123357 0
1.00534 -0.0116569 0
1.01571 -0.0109225 0
1.02606 -0.0101392 0
1.03638 -0.00930908 0
1.04664 -0.00844016 0
1.05681 -0.00753536 0
1.06687 -0.00660345 0
1.07681 -0.00564777 0
1.08658 -0.00467775 0
1.09618 -0.00369675 0
1.10558 -0.0027146 0
1.11476 -0.00173439 0
1.1237 -0.000766054 0
1.13238 0.000187913 0
1.14077 0.00111767 0
1.14886 0.00202161 0
1.15664 0.00289021 0
1.16408 0.00372295 0
1.17118 0.0045108 0
1.17791 0.00525454 0
1.18427 0.00594571 0
1.19024 0.00658655 0
1.19581 0.00716927 0
1.20098 0.00769761 0
1.20573 0.00816451 0
1.21007 0.00857527 0
1.21399 0.0089235 0
1.21747 0.00921606 0
1.22054 0.00944718 0
1.22318 0.00962523 0
1.22539 0.00974494 0
1.22719 0.00981607 0
1.22858 0.00983374 0
1.22957 0.0098089 0
1.23017 0.00973689 0
1.23039 0.00962968 0
1.23024 0.00948264 0
1.22975 0.00930846 0
1.22892 0.00910237 0
1.22778 0.00887755 0
1.22634 0.00862887 0
1.22463 0.00836973 0
1.22266 0.00809451 0
1.22047 0.00781654 0
1.21807 0.00752963 0
1.21548 0.00724677 0
1.21273 0.00696116 0
1.20984 0.00668527 0
1.20683 0.0064117 0
1.20372 0.00615222 0
1.20054 0.00589892 0
1.1973 0.00566274 0
1.19401 0.00543541 0
1.19071 0.00522696 0
1.18739 0.00502895 0
1.18409 0.00485042 0
1.1808 0.00468298 0
1.17754 0.00453463 0
1.17433 0.00439731 0
1.17116 0.0042779 0
1.16805 0.00416892 0
1.165 0.00407609 0
1.16202 0.00399278 0
1.15911 0.00392345 0
1.15627 0.00386255 0
1.15351 0.00381324 0
1.15082 0.00377129 0
1.14821 0.00373844 0
1.14567 0.00371196 0
1.14321 0.00369208 0
1.14082 0.00367781 0
1.1385 0.00366769 0
1.13625 0.00366267 0
1.13406 0.00365947 0
1.13193 0.00366113 0
1.12986 0.00366242 0
1.12785 0.00366862 0
1.12588 0.0036724 0
1.12397 0.00368143 0
1.1221 0.00368612 0
1.12027 0.00369669 0
1.11848 0.00370111 0
1.11673 0.00371226 0
1.11501 0.00371559 0
1.11332 0.00372673 0
1.11165 0.00372843 0
1.11001 0.00373923 0
1.10839 0.00373904 0
1.10679 0.00374937 0
1.10521 0.00374723 0
1.10365 0.00375716 0
1.10209 0.00375315 0
1.10055 0.00376288 0
1.09902 0.00375721 0
1.09749 0.003767 0
1.09598 0.00375995 0
1.09447 0.00377012 0
1.09296 0.003762 0
1.09146 0.00377288 0
1.08997 0.00376402 0
1.08848 0.00377592 0
1.08698 0.00376662 0
1.0855 0.00377981 0
1.08401 0.00377035 0
1.08252 0.00378503 0
1.08103 0.0037756 0
1.07955 0.0037919 0
1.07807 0.00378262 0
1.07659 0.00380058 0
1.0751 0.00379148 0
1.07363 0.003811 0
1.07215 0.00380203 0
1.07067 0.00382289 0
1.0692 0.00381386 0
1.06773 0.00383572 0
1.06626 0.00382633 0
1.06481 0.00384871 0
1.06335 0.00383852 0
1.0619 0.00386076 0
1.06046 0.0038492 0
1.05903 0.0038705 0
1.05761 0.00385685 0
1.0562 0.00387623 0
1.0548 0.00385961 0
1.05342 0.00387592 0
1.05205 0.00385529 0
1.05071 0.00386721 0
1.04938 0.00384139 0
1.04808 0.00384741 0
1.0468 0.00381505 0
1.04555 0.00381353 0
1.04432 0.0037732 0
1.04314 0.0037624 0
1.04198 0.00371267 0
1.04087 0.00369097 0
1.0398 0.00363073 0
1.03878 0.00359697 0
1.0378 0.00352621 0
1.03688 0.0034808 0
1.03601 0.00340253 0
1.03521 0.00334994 0
1.03449 0.00327509 0
1.03386 0.00322995 0
1.03342 0.00318919 0
0.951633 -0.000219536 0
0.911051 -0.000492493 0
0.877422 -0.000805477 0
0.84984 -0.00114798 0
0.827414 -0.00151174 0
0.809327 -0.00189112 0
0.794851 -0.00228175 0
0.783362 -0.00268136 0
0.774334 -0.00308801 0
0.767327 -0.00350146 0
0.761983 -0.0039211 0
0.758009 -0.0043478 0
0.755168 -0.00478152 0
0.75327 -0.00522368 0
0.752164 -0.0056744 0
0.751728 -0.00613527 0
0.751867 -0.00660626 0
0.752507 -0.00708892 0
0.753588 -0.00758293 0
0.755065 -0.00808961 0
0.756903 -0.00860821 0
0.759075 -0.00913971 0
0.761561 -0.00968284 0
0.764348 -0.0102381 0
0.767426 -0.0108037 0
0.770786 -0.0113794 0
0.774426 -0.0119629 0
0.778343 -0.0125533 0
0.782537 -0.0131474 0
0.787009 -0.0137438 0
0.79176 -0.0143384 0
0.796792 -0.014929 0
0.802106 -0.0155108 0
0.807706 -0.0160809 0
0.813592 -0.0166338 0
0.819765 -0.0171659 0
0.826227 -0.017671 0
0.832976 -0.0181451 0
0.840012 -0.0185816 0
0.847331 -0.0189762 0
0.85493 -0.019322 0
0.862804 -0.0196149 0
0.870946 -0.0198481 0
0.879348 -0.0200179 0
0.888 -0.0201179 0
0.896892 -0.0201453 0
0.90601 -0.0200945 0
0.915341 -0.0199637 0
0.924868 -0.0197487 0
0.934576 -0.0194492 0
0.944445 -0.0190623 0
0.954455 -0.0185895 0
0.964587 -0.0180295 0
0.974819 -0.0173857 0
0.985128 -0.0166583 0
0.995491 -0.0158529 0
1.00588 -0.0149712 0
1.01628 -0.0140203 0
1.02667 -0.0130036 0
1.03701 -0.0119298 0
1.04728 -0.0108032 0
1.05746 -0.00963382 0
1.06753 -0.00842679 0
1.07745 -0.00719305 0
1.08722 -0.00593799 0
1.0968 -0.00467316 0
1.10617 -0.00340383 0
1.11531 -0.00214177 0
1.12421 -0.00089173 0
1.13283 0.000334628 0
1.14117 0.00153345 0
1.1492 0.00269348 0
1.15691 0.00381208 0
1.16428 0.00487865 0
1.1713 0.005892 0
1.17795 0.00684239 0
1.18422 0.00773029 0
1.1901 0.00854691 0
1.19558 0.00929455 0
1.20066 0.00996545 0
1.20532 0.0105638 0
1.20956 0.0110828 0
1.21338 0.0115285 0
1.21678 0.0118952 0
1.21975 0.0121908 0
1.2223 0.0124103 0
1.22443 0.0125634 0
1.22614 0.0126459 0
1.22745 0.0126688 0
1.22836 0.0126285 0
1.22888 0.0125374 0
1.22903 0.012392 0
1.22882 0.0122057 0
1.22826 0.0119751 0
1.22737 0.0117141 0
1.22617 0.0114192 0
1.22469 0.0111047 0
1.22293 0.0107664 0
1.22093 0.0104187 0
1.2187 0.0100568 0
1.21626 0.00969477 0
1.21365 0.00932707 0
1.21087 0.0089671 0
1.20796 0.00860864 0
1.20493 0.00826428 0
1.20181 0.00792704 0
1.19861 0.00760859 0
1.19535 0.00730135 0
1.19206 0.00701592 0
1.18874 0.0067443 0
1.18542 0.006496 0
1.18211 0.0062628 0
1.17881 0.00605309 0
1.17555 0.0058587 0
1.17232 0.00568687 0
1.16915 0.00552977 0
1.16603 0.00539346 0
1.16298 0.00527073 0
1.15999 0.00516643 0
1.15708 0.00507424 0
1.15423 0.00499773 0
1.15146 0.00493176 0
1.14877 0.00487855 0
1.14615 0.00483435 0
1.14361 0.00479995 0
1.14114 0.0047732 0
1.13875 0.00475336 0
1.13642 0.00474009 0