# vtk DataFile Version 3.0
Flow field at step 1850
ASCII
DATASET STRUCTURED_GRID
DIMENSIONS 200 100 1
POINTS 20000 float
0.005 0.005 0
0.015 0.005 0
0.025 0.005 0
0.035 0.005 0
0.045 0.005 0
0.055 0.005 0
0.065 0.005 0
0.075 0.005 0
0.085 0.005 0
0.095 0.005 0
0.105 0.005 0
0.115 0.005 0
0.125 0.005 0
0.135 0.005 0
0.145 0.005 0
0.155 0.005 0
0.165 0.005 0
0.175 0.005 0
0.185 0.005 0
0.195 0.005 0
0.205 0.005 0
0.215 0.005 0
0.225 0.005 0
0.235 0.005 0
0.245 0.005 0
0.255 0.005 0
0.265 0.005 0
0.275 0.005 0
0.285 0.005 0
0.295 0.005 0
0.305 0.005 0
0.315 0.005 0
0.325 0.005 0
0.335 0.005 0
0.345 0.005 0
0.355 0.005 0
0.365 0.005 0
0.375 0.005 0
0.385 0.005 0
0.395 0.005 0
0.405 0.005 0
0.415 0.005 0
0.425 0.005 0
0.435 0.005 0
0.445 0.005 0
0.455 0.005 0
0.465 0.005 0
0.475 0.005 0
0.485 0.005 0
0.495 0.005 0
0.505 0.005 0
0.515 0.005 0
0.525 0.005 0
0.535 0.005 0
0.545 0.005 0
0.555 0.005 0
0.565 0.005 0
0.575 0.005 0
0.585 0.005 0
0.595 0.005 0
0.605 0.005 0
0.615 0.005 0
0.625 0.005 0
0.635 0.005 0
0.645 0.005 0
0.655 0.005 0
0.665 0.005 0
0.675 0.005 0
0.685 0.005 0
0.695 0.005 0
0.705 0.005 0
0.715 0.005 0
0.725 0.005 0
0.735 0.005 0
0.745 0.005 0
0.755 0.005 0
0.765 0.005 0
0.775 0.005 0
0.785 0.005 0
0.795 0.005 0
0.805 0.005 0
0.815 0.005 0
0.825 0.005 0
0.835 0.005 0
0.845 0.005 0
0.855 0.005 0
0.865 0.005 0
0.875 0.005 0
0.885 0.005 0
0.895 0.005 0
0.905 0.005 0
0.915 0.005 0
0.925 0.005 0
0.935 0.005 0
0.945 0.005 0
0.955 0.005 0
0.965 0.005 0
0.975 0.005 0
0.985 0.005 0
0.995 0.005 0
1.005 0.005 0
1.015 0.005 0
1.025 0.005 0
1.035 0.005 0
1.045 0.005 0
1.055 0.005 0
1.065 0.005 0
1.075 0.005 0
1.085 0.005 0
1.095 0.005 0
1.105 0.005 0
1.115 0.005 0
1.125 0.005 0
1.135 0.005 0
1.145 0.005 0
1.155 0.005 0
1.165 0.005 0
1.175 0.005 0
1.185 0.005 0
1.195 0.005 0
1.205 0.005 0
1.215 0.005 0
1.225 0.005 0
1.235 0.005 0
1.245 0.005 0
1.255 0.005 0
1.265 0.005 0
1.275 0.005 0
1.285 0.005 0
1.295 0.005 0
1.305 0.005 0
1.315 0.005 0
1.325 0.005 0
1.335 0.005 0
1.345 0.005 0
1.355 0.005 0
1.365 0.005 0
1.375 0.005 0
1.385 0.005 0
1.395 0.005 0
1.405 0.005 0
1.415 0.005 0
1.425 0.005 0
1.435 0.005 0
1.445 0.005 0
1.455 0.005 0
1.465 0.005 0
1.475 0.005 0
1.485 0.005 0
1.495 0.005 0
1.505 0.005 0
1.515 0.005 0
1.525 0.005 0
1.535 0.005 0
1.545 0.005 0
1.555 0.005 0
1.565 0.005 0
1.575 0.005 0
1.585 0.005 0
1.595 0.005 0
1.605 0.005 0
1.615 0.005 0
1.625 0.005 0
1.635 0.005 0
1.645 0.005 0
1.655 0.005 0
1.665 0.005 0
1.675 0.005 0
1.685 0.005 0
1.695 0.005 0
1.705 0.005 0
1.715 0.005 0
1.725 0.005 0
1.735 0.005 0
1.745 0.005 0
1.755 0.005 0
1.765 0.005 0
1.775 0.005 0
1.785 0.005 0
1.795 0.005 0
1.805 0.005 0
1.815 0.005 0
1.825 0.005 0
1.835 0.005 0
1.845 0.005 0
1.855 0.005 0
1.865 0.005 0
1.875 0.005 0
1.885 0.005 0
1.895 0.005 0
1.905 0.005 0
1.915 0.005 0
1.925 0.005 0
1.935 0.005 0
1.945 0.005 0
1.955 0.005 0
1.965 0.005 0
1.975 0.005 0
1.985 0.005 0
1.995 0.005 0
0.005 0.015 0
0.015 0.015 0
0.025 0.015 0
0.035 0.015 0
0.045 0.015 0
0.055 0.015 0
0.065 0.015 0
0.075 0.015 0
0.085 0.015 0
0.095 0.015 0
0.105 0.015 0
0.115 0.015 0
0.125 0.015 0
0.135 0.015 0
0.145 0.015 0
0.155 0.015 0
0.165 0.015 0
0.175 0.015 0
0.185 0.015 0
0.195 0.015 0
0.205 0.015 0
0.215 0.015 0
0.225 0.015 0
0.235 0.015 0
0.245 0.015 0
0.255 0.015 0
0.265 0.015 0
0.275 0.015 0
0.285 0.015 0
0.295 0.015 0
0.305 0.015 0
0.315 0.015 0
0.325 0.015 0
0.335 0.015 0
0.345 0.015 0
0.355 0.015 0
0.365 0.015 0
0.375 0.015 0
0.385 0.015 0
0.395 0.015 0
0.405 0.015 0
0.415 0.015 0
0.425 0.015 0
0.435 0.015 0
0.445 0.015 0
0.455 0.015 0
0.465 0.015 0
0.475 0.015 0
0.485 0.015 0
0.495 0.015 0
0.505 0.015 0
0.515 0.015 0
0.525 0.015 0
0.535 0.015 0
0.545 0.015 0
0.555 0.015 0
0.565 0.015 0
0.575 0.015 0
0.585 0.015 0
0.595 0.015 0
0.605 0.015 0
0.615 0.015 0
0.625 0.015 0
0.635 0.015 0
0.645 0.015 0
0.655 0.015 0
0.665 0.015 0
0.675 0.015 0
0.685 0.015 0
0.695 0.015 0
0.705 0.015 0
0.715 0.015 0
0.725 0.015 0
0.735 0.015 0
0.745 0.015 0
0.755 0.015 0
0.765 0.015 0
0.775 0.015 0
0.785 0.015 0
0.795 0.015 0
0.805 0.015 0
0.815 0.015 0
0.825 0.015 0
0.835 0.015 0
0.845 0.015 0
0.855 0.015 0
0.865 0.015 0
0.875 0.015 0
0.885 0.015 0
0.895 0.015 0
0.905 0.015 0
0.915 0.015 0
0.925 0.015 0
0.935 0.015 0
0.945 0.015 0
0.955 0.015 0
0.965 0.015 0
0.975 0.015 0
0.985 0.015 0
0.995 0.015 0
1.005 0.015 0
1.015 0.015 0
1.025 0.015 0
1.035 0.015 0
1.045 0.015 0
1.055 0.015 0
1.065 0.015 0
1.075 0.015 0
1.085 0.015 0
1.095 0.015 0
1.105 0.015 0
1.115 0.015 0
1.125 0.015 0
1.135 0.015 0
1.145 0.015 0
1.155 0.015 0
1.165 0.015 0
1.175 0.015 0
1.185 0.015 0
1.195 0.015 0
1.205 0.015 0
1.215 0.015 0
1.225 0.015 0
1.235 0.015 0
1.245 0.015 0
1.255 0.015 0
1.265 0.015 0
1.275 0.015 0
1.285 0.015 0
1.295 0.015 0
1.305 0.015 0
1.315 0.015 0
1.325 0.015 0
1.335 0.015 0
1.345 0.015 0
1.355 0.015 0
1.365 0.015 0
1.375 0.015 0
1.385 0.015 0
1.395 0.015 0
1.405 0.015 0
1.415 0.015 0
1.425 0.015 0
1.435 0.015 0
1.445 0.015 0
1.455 0.015 0
1.465 0.015 0
1.475 0.015 0
1.485 0.015 0
1.495 0.015 0
1.505 0.015 0
1.515 0.015 0
1.525 0.015 0
1.535 0.015 0
1.545 0.015 0
1.555 0.015 0
1.565 0.015 0
1.575 0.015 0
1.585 0.015 0
1.595 0.015 0
1.605 0.015 0
1.615 0.015 0
1.625 0.015 0
1.635 0.015 0
1.645 0.015 0
1.655 0.015 0
1.665 0.015 0
1.675 0.015 0
1.685 0.015 0
1.695 0.015 0
1.705 0.015 0
1.715 0.015 0
1.725 0.015 0
1.735 0.015 0
1.745 0.015 0
1.755 0.015 0
1.765 0.015 0
1.775 0.015 0
1.785 0.015 0
1.795 0.015 0
1.805 0.015 0
1.815 0.015 0
1.825 0.015 0
1.835 0.015 0
1.845 0.015 0
1.855 0.015 0
1.865 0.015 0
1.875 0.015 0
1.885 0.015 0
1.895 0.015 0
1.905 0.015 0
1.915 0.015 0
1.925 0.015 0
1.935 0.015 0
1.945 0.015 0
1.955 0.015 0
1.965 0.015 0
1.975 0.015 0
1.985 0.015 0
1.995 0.015 0
0.005 0.025 0
0.015 0.025 0
0.025 0.025 0
0.035 0.025 0
0.045 0.025 0
0.055 0.025 0
0.065 0.025 0
0.075 0.025 0
0.085 0.025 0
0.095 0.025 0
0.105 0.025 0
0.115 0.025 0
0.125 0.025 0
0.135 0.025 0
0.145 0.025 0
0.155 0.025 0
0.165 0.025 0
0.175 0.025 0
0.185 0.025 0
0.195 0.025 0
0.205 0.025 0
0.215 0.025 0
0.225 0.025 0
0.235 0.025 0
0.245 0.025 0
0.255 0.025 0
0.265 0.025 0
0.275 0.025 0
0.285 0.025 0
0.295 0.025 0
0.305 0.025 0
0.315 0.025 0
0.325 0.025 0
0.335 0.025 0
0.345 0.025 0
0.355 0.025 0
0.365 0.025 0
0.375 0.025 0
0.385 0.025 0
0.395 0.025 0
0.405 0.025 0
0.415 0.025 0
0.425 0.025 0
0.435 0.025 0
0.445 0.025 0
0.455 0.025 0
0.465 0.025 0
0.475 0.025 0
0.485 0.025 0
0.495 0.025 0
0.505 0.025 0
0.515 0.025 0
0.525 0.025 0
0.535 0.025 0
0.545 0.025 0
0.555 0.025 0
0.565 0.025 0
0.575 0.025 0
0.585 0.025 0
0.595 0.025 0
0.605 0.025 0
0.615 0.025 0
0.625 0.025 0
0.635 0.025 0
0.645 0.025 0
0.655 0.025 0
0.665 0.025 0
0.675 0.025 0
0.685 0.025 0
0.695 0.025 0
0.705 0.025 0
0.715 0.025 0
0.725 0.025 0
0.735 0.025 0
0.745 0.025 0
0.755 0.025 0
0.765 0.025 0
0.775 0.025 0
0.785 0.025 0
0.795 0.025 0
0.805 0.025 0
0.815 0.025 0
0.825 0.025 0
0.835 0.025 0
0.845 0.025 0
0.855 0.025 0
0.865 0.025 0
0.875 0.025 0
0.885 0.025 0
0.895 0.025 0
0.905 0.025 0
0.915 0.025 0
0.925 0.025 0
0.935 0.025 0
0.945 0.025 0
0.955 0.025 0
0.965 0.025 0
0.975 0.025 0
0.985 0.025 0
0.995 0.025 0
1.005 0.025 0
1.015 0.025 0
1.025 0.025 0
1.035 0.025 0
1.045 0.025 0
1.055 0.025 0
1.065 0.025 0
1.075 0.025 0
1.085 0.025 0
1.095 0.025 0
1.105 0.025 0
1.115 0.025 0
1.125 0.025 0
1.135 0.025 0
1.145 0.025 0
1.155 0.025 0
1.165 0.025 0
1.175 0.025 0
1.185 0.025 0
1.195 0.025 0
1.205 0.025 0
1.215 0.025 0
1.225 0.025 0
1.235 0.025 0
1.245 0.025 0
1.255 0.025 0
1.265 0.025 0
1.275 0.025 0
1.285 0.025 0
1.295 0.025 0
1.305 0.025 0
1.315 0.025 0
1.325 0.025 0
1.335 0.025 0
1.345 0.025 0
1.355 0.025 0
1.365 0.025 0
1.375 0.025 0
1.385 0.025 0
1.395 0.025 0
1.405 0.025 0
1.415 0.025 0
1.425 0.025 0
1.435 0.025 0
1.445 0.025 0
1.455 0.025 0
1.465 0.025 0
1.475 0.025 0
1.485 0.025 0
1.495 0.025 0
1.505 0.025 0
1.515 0.025 0
1.525 0.025 0
1.535 0.025 0
1.545 0.025 0
1.555 0.025 0
1.565 0.025 0
1.575 0.025 0
1.585 0.025 0
1.595 0.025 0
1.605 0.025 0
1.615 0.025 0
1.625 0.025 0
1.635 0.025 0
1.645 0.025 0
1.655 0.025 0
1.665 0.025 0
1.675 0.025 0
1.685 0.025 0
1.695 0.025 0
1.705 0.025 0
1.715 0.025 0
1.725 0.025 0
1.735 0.025 0
1.745 0.025 0
1.755 0.025 0
1.765 0.025 0
1.775 0.025 0
1.785 0.025 0
1.795 0.025 0
1.805 0.025 0
1.815 0.025 0
1.825 0.025 0
1.835 0.025 0
1.845 0.025 0
1.855 0.025 0
1.865 0.025 0
1.875 0.025 0
1.885 0.025 0
1.895 0.025 0
1.905 0.025 0
1.915 0.025 0
1.925 0.025 0
1.935 0.025 0
1.945 0.025 0
1.955 0.025 0
1.965 0.025 0
1.975 0.025 0
1.985 0.025 0
1.995 0.025 0
0.005 0.035 0
0.015 0.035 0
0.025 0.035 0
0.035 0.035 0
0.045 0.035 0
0.055 0.035 0
0.065 0.035 0
0.075 0.035 0
0.085 0.035 0
0.095 0.035 0
0.105 0.035 0
0.115 0.035 0
0.125 0.035 0
0.135 0.035 0
0.145 0.035 0
0.155 0.035 0
0.165 0.035 0
0.175 0.035 0
0.185 0.035 0
0.195 0.035 0
0.205 0.035 0
0.215 0.035 0
0.225 0.035 0
0.235 0.035 0
0.245 0.035 0
0.255 0.035 0
0.265 0.035 0
0.275 0.035 0
0.285 0.035 0
0.295 0.035 0
0.305 0.035 0
0.315 0.035 0
0.325 0.035 0
0.335 0.035 0
0.345 0.035 0
0.355 0.035 0
0.365 0.035 0
0.375 0.035 0
0.385 0.035 0
0.395 0.035 0
0.405 0.035 0
0.415 0.035 0
0.425 0.035 0
0.435 0.035 0
0.445 0.035 0
0.455 0.035 0
0.465 0.035 0
0.475 0.035 0
0.485 0.035 0
0.495 0.035 0
0.505 0.035 0
0.515 0.035 0
0.525 0.035 0
0.535 0.035 0
0.545 0.035 0
0.555 0.035 0
0.565 0.035 0
0.575 0.035 0
0.585 0.035 0
0.595 0.035 0
0.605 0.035 0
0.615 0.035 0
0.625 0.035 0
0.635 0.035 0
0.645 0.035 0
0.655 0.035 0
0.665 0.035 0
0.675 0.035 0
0.685 0.035 0
0.695 0.035 0
0.705 0.035 0
0.715 0.035 0
0.725 0.035 0
0.735 0.035 0
0.745 0.035 0
0.755 0.035 0
0.765 0.035 0
0.775 0.035 0
0.785 0.035 0
0.795 0.035 0
0.805 0.035 0
0.815 0.035 0
0.825 0.035 0
0.835 0.035 0
0.845 0.035 0
0.855 0.035 0
0.865 0.035 0
0.875 0.035 0
0.885 0.035 0
0.895 0.035 0
0.905 0.035 0
0.915 0.035 0
0.925 0.035 0
0.935 0.035 0
0.945 0.035 0
0.955 0.035 0
0.965 0.035 0
0.975 0.035 0
0.985 0.035 0
0.995 0.035 0
1.005 0.035 0
1.015 0.035 0
1.025 0.035 0
1.035 0.035 0
1.045 0.035 0
[...]
POINT_DATA 20000
VECTORS velocity float
0.950779 -2.41254e-05 0
0.909564 -5.40894e-05 0
0.875501 -8.83995e-05 0
0.847654 -0.000125938 0
0.825104 -0.000165762 0
0.807002 -0.00020733 0
0.792596 -0.000250095 0
0.781241 -0.000293924 0
0.77239 -0.0003385 0
0.765593 -0.000383946 0
0.760477 -0.00043005 0
0.756742 -0.000477087 0
0.754143 -0.000524877 0
0.752487 -0.000573775 0
0.751618 -0.00062359 0
0.751412 -0.000674712 0
0.751771 -0.000726918 0
0.75262 -0.000780599 0
0.753899 -0.000835491 0
0.755563 -0.000891957 0
0.757574 -0.000949689 0
0.759908 -0.001009 0
0.762545 -0.00106954 0
0.76547 -0.00113156 0
0.768674 -0.00119464 0
0.772149 -0.00125896 0
0.775893 -0.00132405 0
0.779902 -0.00138999 0
0.784178 -0.00145626 0
0.788721 -0.00152283 0
0.793532 -0.00158913 0
0.798613 -0.00165502 0
0.803966 -0.00171988 0
0.809594 -0.00178346 0
0.815498 -0.00184508 0
0.821679 -0.0019044 0
0.828138 -0.00196074 0
0.834875 -0.00201363 0
0.841889 -0.00206239 0
0.849177 -0.0021065 0
0.856737 -0.00214531 0
0.864564 -0.00217824 0
0.872652 -0.0022047 0
0.880994 -0.00222412 0
0.889582 -0.00223602 0
0.898405 -0.00223983 0
0.907454 -0.00223524 0
0.916714 -0.00222173 0
0.926173 -0.00219917 0
0.935815 -0.00216716 0
0.945624 -0.00212576 0
0.955581 -0.0020747 0
0.965669 -0.00201427 0
0.975867 -0.00194434 0
0.986156 -0.00186545 0
0.996513 -0.0017776 0
1.00692 -0.00168156 0
1.01734 -0.00157746 0
1.02777 -0.0014663 0
1.03818 -0.00134831 0
1.04854 -0.00122468 0
1.05884 -0.00109571 0
1.06904 -0.000962774 0
1.07912 -0.000826181 0
1.08907 -0.000687433 0
1.09885 -0.000546827 0
1.10846 -0.000405962 0
1.11785 -0.000265062 0
1.12702 -0.000125794 0
1.13594 1.17389e-05 0
1.14459 0.000145829 0
1.15296 0.00027654 0
1.16102 0.000402145 0
1.16876 0.000522917 0
1.17616 0.000637124 0
1.1832 0.000745289 0
1.18987 0.000845679 0
1.19617 0.000939102 0
1.20207 0.00102382 0
1.20756 0.00110097 0
1.21264 0.00116879 0
1.2173 0.00122875 0
1.22153 0.00127907 0
1.22533 0.0013216 0
1.22869 0.00135448 0
1.23162 0.00137994 0
1.23411 0.00139606 0
1.23618 0.00140543 0
1.23781 0.001406 0
1.23902 0.00140078 0
1.23982 0.00138753 0
1.24022 0.00136964 0
1.24024 0.00134466 0
1.23987 0.00131637 0
1.23915 0.00128201 0
1.23809 0.00124575 0
1.23671 0.0012045 0
1.23503 0.00116277 0
1.23306 0.0011171 0
1.23085 0.00107233 0
1.2284 0.00102456 0
1.22574 0.000978966 0
1.22289 0.000931201 0
1.21988 0.000886712 0
1.21673 0.000840703 0
1.21347 0.000798896 0
1.21011 0.00075603 0
1.20668 0.000718088 0
1.2032 0.000679356 0
1.19968 0.000646071 0
1.19614 0.000612087 0
1.1926 0.000583886 0
1.18908 0.000554923 0
1.18558 0.000531914 0
1.18213 0.000507956 0
1.17871 0.000489989 0
1.17536 0.000470794 0
1.17207 0.000457523 0
1.16884 0.000442684 0
1.16569 0.000433631 0
1.16262 0.000422639 0
1.15962 0.000417248 0
1.15671 0.000409541 0
1.15388 0.000407228 0
1.15113 0.000402231 0
1.14845 0.00040242 0
1.14586 0.000399582 0
1.14334 0.000401732 0
1.1409 0.000400542 0
1.13853 0.000404167 0
1.13622 0.000404171 0
1.13399 0.000408847 0
1.13181 0.000409656 0
1.12969 0.00041503 0
1.12763 0.000416317 0
1.12563 0.000422101 0
1.12367 0.000423604 0
1.12175 0.000429574 0
1.11988 0.000431086 0
1.11805 0.000437079 0
1.11626 0.000438442 0
1.1145 0.000444344 0
1.11278 0.000445444 0
1.11108 0.000451184 0
1.10941 0.000451944 0
1.10777 0.000457486 0
1.10615 0.000457855 0
1.10455 0.000463192 0
1.10298 0.000463141 0
1.10142 0.000468288 0
1.09988 0.000467803 0
1.09836 0.00047279 0
1.09685 0.000471869 0
1.09536 0.000476733 0
1.09388 0.00047538 0
1.09241 0.000480168 0
1.09096 0.000478388 0
1.08952 0.000483145 0
1.08809 0.000480947 0
1.08667 0.000485716 0
1.08526 0.000483104 0
1.08387 0.000487925 0
1.08248 0.000484901 0
1.08111 0.000489805 0
1.07975 0.000486366 0
1.0784 0.000491375 0
1.07706 0.000487513 0
1.07574 0.00049264 0
1.07442 0.000488341 0
1.07312 0.000493584 0
1.07183 0.000488827 0
1.07056 0.000494172 0
1.0693 0.000488929 0
1.06805 0.00049435 0
1.06682 0.000488584 0
1.0656 0.000494037 0
1.0644 0.000487706 0
1.06322 0.000493133 0
1.06206 0.000486182 0
1.06091 0.00049151 0
1.05979 0.000483877 0
1.05868 0.000489014 0
1.0576 0.000480627 0
1.05653 0.000485468 0
1.0555 0.000476244 0
1.05449 0.000480667 0
1.0535 0.000470519 0
1.05254 0.000474384 0
1.05162 0.000463231 0
1.05072 0.000466386 0
1.04986 0.000454175 0
1.04903 0.000456463 0
1.04824 0.000443244 0
1.04748 0.000444521 0
1.04677 0.000430614 0
1.0461 0.000430813 0
1.04548 0.000417245 0
1.04492 0.000416555 0
1.04443 0.000406148 0
1.04409 0.000405454 0
0.950764 -7.23351e-05 0
0.909537 -0.000162141 0
0.875465 -0.000265043 0
0.847611 -0.000377512 0
0.825056 -0.000496987 0
0.806951 -0.000621485 0
0.792542 -0.00074983 0
0.781184 -0.000881063 0
0.772331 -0.00101489 0
0.765532 -0.00115093 0
0.760414 -0.00128939 0
0.756676 -0.00143018 0
0.754076 -0.00157375 0
0.752417 -0.0017201 0
0.751545 -0.00186979 0
0.751336 -0.00202281 0
0.751693 -0.00217971 0
0.752539 -0.00234042 0
0.753815 -0.00250541 0
0.755475 -0.0026745 0
0.757483 -0.00284805 0
0.759814 -0.00302571 0
0.762448 -0.00320771 0
0.76537 -0.00339353 0
0.768571 -0.00358318 0
0.772044 -0.00377596 0
0.775785 -0.00397167 0
0.779793 -0.00416938 0
0.784068 -0.00436864 0
0.78861 -0.00456832 0
0.793421 -0.00476768 0
0.798502 -0.00496538 0
0.803857 -0.00516041 0
0.809487 -0.00535122 0
0.815394 -0.00553653 0
0.821579 -0.00571464 0
0.828044 -0.00588403 0
0.834787 -0.00604287 0
0.841807 -0.00618949 0
0.849104 -0.006322 0
0.856672 -0.00643865 0
0.864509 -0.00653761 0
0.872608 -0.00661711 0
0.880962 -0.0066755 0
0.889562 -0.00671115 0
0.898399 -0.00672267 0
0.907461 -0.00670866 0
0.916736 -0.00666815 0
0.926209 -0.00660007 0
0.935866 -0.00650395 0
0.945689 -0.00637918 0
0.95566 -0.00622584 0
0.965762 -0.00604382 0
0.975973 -0.00583381 0
0.986274 -0.00559624 0
0.996642 -0.00533243 0
1.00706 -0.00504329 0
1.01749 -0.00473075 0
1.02793 -0.00439616 0
1.03834 -0.00404199 0
1.04871 -0.00366996 0
1.05901 -0.00328295 0
1.06921 -0.00288298 0
1.07929 -0.00247323 0
1.08924 -0.00205584 0
1.09902 -0.00163423 0
1.10861 -0.00121054 0
1.118 -0.000788263 0
1.12716 -0.000369412 0
1.13607 4.25259e-05 0
1.14471 0.00044579 0
1.15306 0.000837006 0
1.1611 0.00121478 0
1.16882 0.00157591 0
1.1762 0.00191947 0
1.18322 0.00224252 0
1.18988 0.00254466 0
1.19615 0.00282322 0
1.20202 0.00307842 0
1.2075 0.0033079 0
1.21255 0.00351251 0
1.21719 0.0036902 0
1.22139 0.00384251 0
1.22517 0.00396767 0
1.22851 0.00406789 0
1.23141 0.00414165 0
1.23389 0.00419185 0
1.23592 0.00421713 0
1.23754 0.00422106 0
1.23873 0.00420235 0
1.23951 0.00416518 0
1.23989 0.00410827 0
1.23989 0.00403633 0
1.23951 0.00394796 0
1.23877 0.00384834 0
1.23769 0.00373582 0
1.2363 0.00361597 0
1.23461 0.00348677 0
1.23263 0.0033541 0
1.23041 0.00321547 0
1.22795 0.00307696 0
1.22528 0.00293553 0
1.22243 0.00279743 0
1.21941 0.00265899 0
1.21626 0.00252655 0
1.21299 0.00239579 0
1.20963 0.00227313 0
1.2062 0.00215361 0
1.20271 0.00204369 0
1.19919 0.00193777 0
1.19565 0.00184239 0
1.19211 0.00175137 0
1.18859 0.00167133 0
1.18509 0.00159555 0
1.18163 0.00153076 0
1.17822 0.0014698 0
1.17486 0.00141951 0
1.17157 0.00137235 0
1.16834 0.00133532 0
1.16519 0.00130057 0
1.16212 0.00127524 0
1.15912 0.00125126 0
1.15621 0.00123593 0
1.15337 0.001221 0
1.15062 0.00121393 0
1.14795 0.00120634 0
1.14535 0.00120586 0
1.14283 0.00120401 0
1.14039 0.00120858 0
1.13801 0.00121103 0
1.13571 0.0012193 0
1.13347 0.00122477 0
1.13129 0.00123557 0
1.12918 0.00124301 0
1.12711 0.00125538 0
1.1251 0.00126391 0
1.12314 0.00127708 0
1.12123 0.00128601 0
1.11936 0.00129938 0
1.11753 0.00130819 0
1.11574 0.00132134 0
1.11398 0.00132964 0
1.11225 0.00134227 0
1.11056 0.0013498 0
1.10889 0.00136173 0
1.10724 0.00136833 0
1.10563 0.00137947 0
1.10403 0.00138506 0
1.10245 0.00139538 0
1.10089 0.00139993 0
1.09936 0.00140947 0
1.09783 0.00141299 0
1.09632 0.00142181 0
1.09483 0.00142435 0
1.09335 0.00143255 0
1.09189 0.00143415 0
1.09044 0.00144182 0
1.089 0.00144256 0
1.08757 0.00144979 0
1.08615 0.00144971 0
1.08475 0.0014566 0
1.08336 0.00145575 0
1.08197 0.00146237 0
1.0806 0.00146079 0
1.07924 0.00146718 0
1.0779 0.00146487 0
1.07656 0.00147107 0
1.07524 0.00146802 0
1.07392 0.00147403 0
1.07262 0.0014702 0
1.07134 0.00147597 0
1.07007 0.0014713 0
1.06881 0.00147678 0
1.06756 0.00147118 0
1.06633 0.00147625 0
1.06512 0.0014696 0
1.06392 0.00147411 0
1.06274 0.00146625 0
1.06158 0.00147003 0
1.06044 0.00146078 0
1.05931 0.00146359 0
1.05821 0.00145271 0
1.05713 0.0014543 0
1.05607 0.00144153 0
1.05503 0.00144157 0
1.05402 0.00142663 0
1.05304 0.00142478 0
1.05209 0.00140735 0
1.05116 0.00140323 0
1.05027 0.00138302 0
1.04941 0.00137627 0
1.04858 0.00135309 0
1.04779 0.00134345 0
1.04704 0.00131745 0
1.04633 0.00130501 0
1.04566 0.00127732 0
1.04504 0.00126315 0
1.04448 0.0012374 0
1.04399 0.00122525 0
1.04365 0.00121144 0
0.950734 -0.000120392 0
0.909483 -0.000269878 0
0.875393 -0.000441108 0
0.847526 -0.000628331 0
0.824961 -0.000827108 0
0.806848 -0.00103438 0
0.792433 -0.00124789 0
0.78107 -0.00146642 0
0.772213 -0.00168905 0
0.765409 -0.00191563 0
0.760287 -0.00214598 0
0.756546 -0.00238054 0
0.75394 -0.00261942 0
0.752277 -0.00286332 0
0.7514 -0.00311243 0
0.751185 -0.00336753 0
0.751536 -0.00362873 0
0.752376 -0.00389672 0
0.753646 -0.00417149 0
0.755299 -0.00445355 0
0.757302 -0.00474268 0
0.759626 -0.00503916 0
0.762253 -0.00534249 0
0.76517 -0.00565267 0
0.768365 -0.00596889 0
0.771833 -0.00629081 0
0.77557 -0.00661727 0
0.779575 -0.00694754 0
0.783847 -0.00728008 0
0.788387 -0.00761374 0
0.793198 -0.00794661 0
0.798281 -0.00827706 0
0.803638 -0.00860283 0
0.809273 -0.00892185 0
0.815186 -0.00923152 0
0.821379 -0.00952938 0
0.827853 -0.00981254 0
0.834608 -0.0100782 0
0.841643 -0.0103234 0
0.848956 -0.010545 0
0.856542 -0.0107401 0
0.864399 -0.0109056 0
0.87252 -0.0110386 0
0.880897 -0.0111362 0
0.889522 -0.0111957 0
0.898386 -0.0112148 0
0.907475 -0.0111912 0
0.916778 -0.0111231 0
0.92628 -0.011009 0
0.935966 -0.0108477 0
0.945817 -0.0106388 0
0.955817 -0.0103816 0
0.965946 -0.0100769 0
0.976184 -0.00972494 0
0.986509 -0.00932731 0
0.9969 -0.00888536 0
1.00733 -0.00840159 0
1.01779 -0.00787821 0
1.02824 -0.00731864 0
1.03867 -0.00672581 0
1.04904 -0.00610391 0
1.05934 -0.00545644 0
1.06955 -0.00478818 0
1.07963 -0.004103 0
1.08957 -0.00340607 0
1.09934 -0.00270143 0
1.10892 -0.00199444 0
1.11829 -0.00128906 0
1.12743 -0.000590669 0
1.13632 9.70414e-05 0
1.14493 0.00076889 0
1.15325 0.00142163 0
1.16126 0.00205041 0
1.16894 0.00265261 0
1.17629 0.00322383 0
1.18327 0.0037622 0
1.18988 0.00426388 0
1.19611 0.00472786 0
1.20194 0.00515089 0
1.20736 0.00553292 0
1.21237 0.00587132 0
1.21696 0.00616703 0
1.22112 0.00641805 0
1.22484 0.00662632 0
1.22814 0.00679041 0
1.231 0.00691326 0
1.23342 0.00699394 0
1.23542 0.00703635 0
1.23699 0.00703995 0
1.23814 0.0070095 0
1.23888 0.00694471 0
1.23922 0.00685111 0
1.23918 0.00672849 0
1.23877 0.00658301 0
1.238 0.00641436 0
1.2369 0.00622919 0
1.23548 0.0060269 0
1.23376 0.00581446 0
1.23177 0.00559083 0
1.22952 0.00536314 0
1.22704 0.00512974 0
1.22436 0.00489781 0
1.22149 0.00466498 0
1.21847 0.00443836 0
1.21531 0.00421478 0
1.21203 0.00400125 0
1.20866 0.00379373 0
1.20522 0.00359912 0
1.20173 0.00341254 0
1.19821 0.00324075 0
1.19467 0.00307809 0
1.19113 0.00293123 0
1.1876 0.0027938 0
1.1841 0.0026724 0
1.18063 0.00256008 0
1.17722 0.00246341 0
1.17386 0.00237495 0
1.17057 0.00230132 0
1.16734 0.00223467 0
1.16419 0.00218173 0
1.16111 0.00213435 0
1.15811 0.00209937 0
1.1552 0.00206844 0
1.15236 0.00204855 0
1.1496 0.00203122 0
1.14693 0.00202359 0
1.14433 0.0020171 0
1.14181 0.00201908 0
1.13936 0.00202089 0
1.13699 0.00203007 0
1.13468 0.00203794 0
1.13244 0.00205222 0
1.13026 0.00206422 0
1.12814 0.00208185 0
1.12607 0.00209638 0
1.12406 0.00211592 0
1.1221 0.00213169 0
1.12019 0.00215201 0
1.11831 0.00216802 0
1.11648 0.00218828 0
1.11469 0.00220379 0
1.11293 0.00222339 0
1.1112 0.00223788 0
1.1095 0.0022564 0
1.10783 0.00226954 0
1.10619 0.00228676 0
1.10457 0.00229834 0
1.10298 0.00231417 0
1.1014 0.00232413 0
1.09984 0.00233855 0
1.09831 0.00234689 0
1.09678 0.00235998 0
1.09528 0.00236675 0
1.09379 0.00237864 0
1.09231 0.00238394 0
1.09085 0.00239477 0
1.0894 0.0023987 0
1.08796 0.00240861 0
1.08654 0.0024113 0
1.08512 0.00242043 0
1.08372 0.00242196 0
1.08233 0.00243045 0
1.08095 0.00243089 0
1.07959 0.00243882 0
1.07823 0.00243823 0
1.07689 0.00244565 0
1.07555 0.00244403 0
1.07423 0.00245096 0
1.07293 0.00244828 0
1.07163 0.00245468 0
1.07035 0.00245086 0
1.06908 0.00245665 0
1.06783 0.00245156 0
1.06659 0.00245658 0
1.06536 0.00245004 0
1.06415 0.00245409 0
1.06296 0.00244587 0
1.06178 0.00244867 0
1.06062 0.00243849 0
1.05949 0.00243971 0
1.05837 0.0024272 0
1.05727 0.00242644 0
1.05619 0.00241119 0
1.05514 0.00240797 0
1.05411 0.00238951 0
1.0531 0.00238329 0
1.05212 0.00236109 0
1.05117 0.00235128 0
1.05025 0.00232481 0
1.04936 0.00231082 0
1.0485 0.00227961 0
1.04768 0.00226094 0
1.0469 0.00222483 0
1.04615 0.00220134 0
1.04544 0.00216105 0
1.04478 0.00213373 0
1.04416 0.00209241 0
1.04361 0.00206528 0
1.04312 0.00203231 0
1.04278 0.00201712 0
0.950688 -0.000168213 0
0.909403 -0.000377043 0
0.875286 -0.000616279 0
0.847399 -0.000877784 0
0.824819 -0.00115552 0
0.806694 -0.001445 0
0.792271 -0.00174336 0
0.7809 -0.00204857 0
0.772036 -0.00235973 0
0.765226 -0.00267623 0
0.760098 -0.00299828 0
0.75635 -0.00332598 0
0.753738 -0.00366009 0
0.752067 -0.00400095 0
0.751182 -0.00434953 0
0.750959 -0.00470619 0
0.751301 -0.00507184 0
0.752132 -0.00544672 0
0.753392 -0.00583156 0
0.755036 -0.00622633 0
0.757028 -0.00663149 0
0.759343 -0.00704668 0
0.761961 -0.00747198 0
0.764868 -0.00790662 0
0.768055 -0.00835024 0
0.771516 -0.00880161 0
0.775246 -0.00925985 0
0.779245 -0.00972322 0
0.783513 -0.0101903 0
0.788052 -0.0106587 0
0.792862 -0.0111264 0
0.797947 -0.0115906 0
0.803308 -0.0120486 0
0.808949 -0.012497 0
0.814872 -0.0129326 0
0.821077 -0.0133514 0
0.827566 -0.0137499 0
0.834339 -0.0141236 0
0.841395 -0.0144687 0
0.848731 -0.0147806 0
0.856345 -0.0150552 0
0.864231 -0.0152881 0
0.872385 -0.0154751 0
0.880797 -0.0156123 0
0.88946 -0.0156959 0
0.898363 -0.0157224 0
0.907494 -0.0156887 0
0.916839 -0.0155923 0
0.926385 -0.015431 0
0.936113 -0.0152033 0
0.946008 -0.0149081 0
0.95605 -0.0145454 0
0.96622 -0.0141153 0
0.976497 -0.013619 0
0.986859 -0.0130581 0
0.997284 -0.0124353 0
1.00775 -0.0117533 0
1.01823 -0.0110162 0
1.0287 -0.0102279 0
1.03915 -0.0093935 0
1.04954 -0.00851795 0
1.05985 -0.00760736 0
1.07005 -0.00666725 0
1.08013 -0.00570443 0
1.09006 -0.00472478 0
1.09982 -0.00373551 0
1.10938 -0.00274258 0
1.11872 -0.00175326 0
1.12783 -0.000773304 0
1.13668 0.000190193 0
1.14525 0.00113198 0
1.15353 0.00204539 0
1.16149 0.0029259 0
1.16912 0.00376745 0
1.1764 0.00456647 0
1.18332 0.00531768 0
1.18987 0.0060186 0
1.19603 0.00666482 0
1.20179 0.0072551 0
1.20715 0.00778596 0
1.21208 0.00825745 0
1.2166 0.00866705 0
1.22069 0.00901616 0
1.22434 0.00930317 0
1.22757 0.00953079 0
1.23035 0.00969827 0
1.23271 0.00980957 0
1.23464 0.00986467 0
1.23614 0.0098687 0
1.23723 0.00982218 0
1.23792 0.00973126 0
1.23821 0.00959681 0
1.23811 0.0094258 0
1.23765 0.00921922 0
1.23684 0.00898468 0
1.23569 0.008723 0
1.23423 0.00844222 0
1.23248 0.00814278 0
1.23045 0.00783288 0
1.22818 0.00751236 0
1.22568 0.00718943 0
1.22297 0.00686311 0
1.22009 0.00654146 0
1.21705 0.00622256 0
1.21387 0.00591421 0
1.21058 0.00561347 0
1.2072 0.00532781 0
1.20376 0.00505328 0
1.20026 0.00479701 0
1.19673 0.00455406 0
1.19318 0.00433127 0
1.18964 0.0041228 0
1.18611 0.00393524 0
1.1826 0.00376198 0
1.17914 0.00360943 0
1.17572 0.00347036 0
1.17236 0.00335108 0
1.16906 0.00324384 0
1.16583 0.00315496 0
1.16267 0.00307631 0
1.1596 0.00301427 0
1.1566 0.00296045 0
1.15367 0.00292134 0
1.15084 0.00288838 0
1.14808 0.00286822 0
1.1454 0.00285221 0
1.1428 0.00284718 0
1.14027 0.00284444 0
1.13782 0.00285102 0
1.13544 0.00285823 0
1.13313 0.0028733 0
1.13088 0.00288756 0
1.1287 0.00290845 0
1.12658 0.00292731 0
1.12451 0.00295181 0
1.1225 0.00297328 0
1.12053 0.00299962 0
1.11861 0.00302211 0
1.11674 0.00304891 0
1.11491 0.00307124 0
1.11311 0.0030975 0
1.11135 0.00311879 0
1.10962 0.00314382 0
1.10792 0.00316348 0
1.10625 0.00318684 0
1.10461 0.00320453 0
1.10299 0.00322598 0
1.1014 0.00324151 0
1.09982 0.00326099 0
1.09827 0.00327432 0
1.09673 0.00329187 0
1.09521 0.00330306 0
1.09371 0.0033188 0
1.09222 0.00332797 0
1.09075 0.00334209 0
1.08929 0.00334938 0
1.08784 0.00336206 0
1.08641 0.00336763 0
1.08499 0.00337909 0
1.08358 0.00338309 0
1.08218 0.00339349 0
1.0808 0.00339605 0
1.07942 0.00340554 0
1.07806 0.00340675 0
1.07671 0.00341542 0
1.07537 0.00341531 0
1.07405 0.00342321 0
1.07273 0.00342177 0
1.07143 0.00342888 0
1.07014 0.00342604 0
1.06887 0.00343226 0
1.0676 0.00342787 0
1.06636 0.00343304 0
1.06512 0.00342689 0
1.0639 0.00343076 0
1.0627 0.00342256 0
1.06152 0.00342479 0
1.06035 0.00341418 0
1.0592 0.00341436 0
1.05806 0.00340088 0
1.05695 0.00339848 0
1.05586 0.00338159 0
1.05479 0.00337601 0
1.05374 0.00335508 0
1.05272 0.00334561 0
1.05172 0.00331993 0
1.05075 0.00330581 0
1.0498 0.00327461 0
1.04889 0.00325499 0
1.04801 0.00321755 0
1.04716 0.00319165 0
1.04634 0.00314742 0
1.04556 0.00311478 0
1.04482 0.00306395 0
1.04412 0.00302506 0
1.04346 0.00296981 0
1.04285 0.00292786 0
1.0423 0.00287565 0
1.04182 0.00284094 0
1.04148 0.00281264 0
0.950628 -0.000215684 0
0.909296 -0.000483441 0
0.875144 -0.000790126 0
0.84723 -0.00112541 0
0.82463 -0.0014814 0
0.80649 -0.00185257 0
0.792054 -0.002235 0
0.780674 -0.0026264 0
0.771801 -0.00302529 0
0.764982 -0.0034313 0
0.759846 -0.00384426 0
0.756089 -0.00426481 0
0.753467 -0.00469339 0
0.751787 -0.00513107 0
0.750891 -0.00557845 0
0.750657 -0.00603667 0
0.750987 -0.00650625 0
0.751805 -0.00698819 0
0.753053 -0.00748275 0
0.754684 -0.00799062 0
0.756663 -0.00851168 0
0.758965 -0.00904621 0
0.76157 -0.00959359 0
0.764465 -0.0101536 0
0.767641 -0.010725 0
0.771091 -0.011307 0
0.774812 -0.0118977 0
0.778804 -0.0124956 0
0.783067 -0.0130982 0
0.787602 -0.0137031 0
0.792411 -0.0143071 0
0.797498 -0.0149069 0
0.802865 -0.0154988 0
0.808514 -0.0160786 0
0.814449 -0.0166418 0
0.82067 -0.0171838 0
0.827179 -0.0176993 0
0.833975 -0.0181832 0
0.841059 -0.0186298 0
0.848427 -0.0190337 0
0.856077 -0.0193891 0
0.864004 -0.0196906 0
0.872201 -0.0199327 0
0.880661 -0.02011 0
0.889374 -0.0202178 0
0.898329 -0.0202515 0
0.907515 -0.0202072 0
0.916917 -0.0200813 0
0.92652 -0.0198712 0
0.936306 -0.0195749 0
0.946258 -0.0191912 0
0.956357 -0.0187197 0
0.966581 -0.018161 0
0.97691 -0.0175164 0
0.98732 -0.0167885 0
0.99779 -0.0159801 0
1.00829 -0.0150957 0
1.01881 -0.0141398 0
1.02931 -0.0131183 0
1.03978 -0.0120373 0
1.05019 -0.0109039 0
1.0605 -0.00972527 0
1.07071 -0.00850964 0
1.08079 -0.00726468 0
1.0907 -0.00599939 0
1.10044 -0.00472171 0
1.10997 -0.00344085 0
1.11928 -0.00216468 0
1.12835 -0.000902281 0
1.13715 0.000338963 0
1.14566 0.0015504 0
1.15388 0.00272546 0
1.16177 0.00385623 0
1.16933 0.00493722 0
1.17653 0.00596148 0
1.18337 0.00692484 0
1.18983 0.00782147 0
1.1959 0.00864867 0
1.20157 0.00940186 0
1.20683 0.01008 0
1.21168 0.0106796 0
1.2161 0.0112015 0
1.22009 0.0116434 0
1.22365 0.0120077 0
1.22678 0.0122934 0
1.22947 0.0125045 0
1.23174 0.0126411 0
1.23358 0.0127086 0
1.235 0.0127079 0
1.236 0.0126458 0
1.23661 0.012524 0
1.23682 0.0123501 0
1.23666 0.0121264 0
1.23613 0.0118611 0
1.23526 0.0115567 0
1.23406 0.011222 0
1.23255 0.010859 0
1.23075 0.010477 0
1.22869 0.0100773 0
1.22637 0.00966917 0
1.22384 0.00925322 0
1.22111 0.00883847 0
1.2182 0.00842442 0
1.21513 0.00801975 0
1.21194 0.0076228 0
1.20864 0.00724176 0
1.20524 0.00687377 0
1.20178 0.00652649 0
1.19828 0.0061959 0
1.19474 0.00588911 0
1.19119 0.00560103 0
1.18764 0.00533834 0
1.1841 0.00509495 0
1.18059 0.00487721 0
1.17712 0.00467821 0
1.1737 0.00450406 0
1.17034 0.00434723 0
1.16704 0.00421365 0
1.16381 0.00409534 0
1.16065 0.0039982 0
1.15756 0.00391389 0
1.15456 0.00384839 0
1.15164 0.00379314 0
1.14879 0.00375424 0
1.14603 0.00372301 0
1.14335 0.00370573 0
1.14074 0.00369368 0