# vtk DataFile Version 3.0
Flow field at step 600
ASCII
DATASET STRUCTURED_GRID
DIMENSIONS 200 100 1
POINTS 20000 float
0.005 0.005 0
0.015 0.005 0
0.025 0.005 0
0.035 0.005 0
0.045 0.005 0
0.055 0.005 0
0.065 0.005 0
0.075 0.005 0
0.085 0.005 0
0.095 0.005 0
0.105 0.005 0
0.115 0.005 0
0.125 0.005 0
0.135 0.005 0
0.145 0.005 0
0.155 0.005 0
0.165 0.005 0
0.175 0.005 0
0.185 0.005 0
0.195 0.005 0
0.205 0.005 0
0.215 0.005 0
0.225 0.005 0
0.235 0.005 0
0.245 0.005 0
0.255 0.005 0
0.265 0.005 0
0.275 0.005 0
0.285 0.005 0
0.295 0.005 0
0.305 0.005 0
0.315 0.005 0
0.325 0.005 0
0.335 0.005 0
0.345 0.005 0
0.355 0.005 0
0.365 0.005 0
0.375 0.005 0
0.385 0.005 0
0.395 0.005 0
0.405 0.005 0
0.415 0.005 0
0.425 0.005 0
0.435 0.005 0
0.445 0.005 0
0.455 0.005 0
0.465 0.005 0
0.475 0.005 0
0.485 0.005 0
0.495 0.005 0
0.505 0.005 0
0.515 0.005 0
0.525 0.005 0
0.535 0.005 0
0.545 0.005 0
0.555 0.005 0
0.565 0.005 0
0.575 0.005 0
0.585 0.005 0
0.595 0.005 0
0.605 0.005 0
0.615 0.005 0
0.625 0.005 0
0.635 0.005 0
0.645 0.005 0
0.655 0.005 0
0.665 0.005 0
0.675 0.005 0
0.685 0.005 0
0.695 0.005 0
0.705 0.005 0
0.715 0.005 0
0.725 0.005 0
0.735 0.005 0
0.745 0.005 0
0.755 0.005 0
0.765 0.005 0
0.775 0.005 0
0.785 0.005 0
0.795 0.005 0
0.805 0.005 0
0.815 0.005 0
0.825 0.005 0
0.835 0.005 0
0.845 0.005 0
0.855 0.005 0
0.865 0.005 0
0.875 0.005 0
0.885 0.005 0
0.895 0.005 0
0.905 0.005 0
0.915 0.005 0
0.925 0.005 0
0.935 0.005 0
0.945 0.005 0
0.955 0.005 0
0.965 0.005 0
0.975 0.005 0
0.985 0.005 0
0.995 0.005 0
1.005 0.005 0
1.015 0.005 0
1.025 0.005 0
1.035 0.005 0
1.045 0.005 0
1.055 0.005 0
1.065 0.005 0
1.075 0.005 0
1.085 0.005 0
1.095 0.005 0
1.105 0.005 0
1.115 0.005 0
1.125 0.005 0
1.135 0.005 0
1.145 0.005 0
1.155 0.005 0
1.165 0.005 0
1.175 0.005 0
1.185 0.005 0
1.195 0.005 0
1.205 0.005 0
1.215 0.005 0
1.225 0.005 0
1.235 0.005 0
1.245 0.005 0
1.255 0.005 0
1.265 0.005 0
1.275 0.005 0
1.285 0.005 0
1.295 0.005 0
1.305 0.005 0
1.315 0.005 0
1.325 0.005 0
1.335 0.005 0
1.345 0.005 0
1.355 0.005 0
1.365 0.005 0
1.375 0.005 0
1.385 0.005 0
1.395 0.005 0
1.405 0.005 0
1.415 0.005 0
1.425 0.005 0
1.435 0.005 0
1.445 0.005 0
1.455 0.005 0
1.465 0.005 0
1.475 0.005 0
1.485 0.005 0
1.495 0.005 0
1.505 0.005 0
1.515 0.005 0
1.525 0.005 0
1.535 0.005 0
1.545 0.005 0
1.555 0.005 0
1.565 0.005 0
1.575 0.005 0
1.585 0.005 0
1.595 0.005 0
1.605 0.005 0
1.615 0.005 0
1.625 0.005 0
1.635 0.005 0
1.645 0.005 0
1.655 0.005 0
1.665 0.005 0
1.675 0.005 0
1.685 0.005 0
1.695 0.005 0
1.705 0.005 0
1.715 0.005 0
1.725 0.005 0
1.735 0.005 0
1.745 0.005 0
1.755 0.005 0
1.765 0.005 0
1.775 0.005 0
1.785 0.005 0
1.795 0.005 0
1.805 0.005 0
1.815 0.005 0
1.825 0.005 0
1.835 0.005 0
1.845 0.005 0
1.855 0.005 0
1.865 0.005 0
1.875 0.005 0
1.885 0.005 0
1.895 0.005 0
1.905 0.005 0
1.915 0.005 0
1.925 0.005 0
1.935 0.005 0
1.945 0.005 0
1.955 0.005 0
1.965 0.005 0
1.975 0.005 0
1.985 0.005 0
1.995 0.005 0
0.005 0.015 0
0.015 0.015 0
0.025 0.015 0
0.035 0.015 0
0.045 0.015 0
0.055 0.015 0
0.065 0.015 0
0.075 0.015 0
0.085 0.015 0
0.095 0.015 0
0.105 0.015 0
0.115 0.015 0
0.125 0.015 0
0.135 0.015 0
0.145 0.015 0
0.155 0.015 0
0.165 0.015 0
0.175 0.015 0
0.185 0.015 0
0.195 0.015 0
0.205 0.015 0
0.215 0.015 0
0.225 0.015 0
0.235 0.015 0
0.245 0.015 0
0.255 0.015 0
0.265 0.015 0
0.275 0.015 0
0.285 0.015 0
0.295 0.015 0
0.305 0.015 0
0.315 0.015 0
0.325 0.015 0
0.335 0.015 0
0.345 0.015 0
0.355 0.015 0
0.365 0.015 0
0.375 0.015 0
0.385 0.015 0
0.395 0.015 0
0.405 0.015 0
0.415 0.015 0
0.425 0.015 0
0.435 0.015 0
0.445 0.015 0
0.455 0.015 0
0.465 0.015 0
0.475 0.015 0
0.485 0.015 0
0.495 0.015 0
0.505 0.015 0
0.515 0.015 0
0.525 0.015 0
0.535 0.015 0
0.545 0.015 0
0.555 0.015 0
0.565 0.015 0
0.575 0.015 0
0.585 0.015 0
0.595 0.015 0
0.605 0.015 0
0.615 0.015 0
0.625 0.015 0
0.635 0.015 0
0.645 0.015 0
0.655 0.015 0
0.665 0.015 0
0.675 0.015 0
0.685 0.015 0
0.695 0.015 0
0.705 0.015 0
0.715 0.015 0
0.725 0.015 0
0.735 0.015 0
0.745 0.015 0
0.755 0.015 0
0.765 0.015 0
0.775 0.015 0
0.785 0.015 0
0.795 0.015 0
0.805 0.015 0
0.815 0.015 0
0.825 0.015 0
0.835 0.015 0
0.845 0.015 0
0.855 0.015 0
0.865 0.015 0
0.875 0.015 0
0.885 0.015 0
0.895 0.015 0
0.905 0.015 0
0.915 0.015 0
0.925 0.015 0
0.935 0.015 0
0.945 0.015 0
0.955 0.015 0
0.965 0.015 0
0.975 0.015 0
0.985 0.015 0
0.995 0.015 0
1.005 0.015 0
1.015 0.015 0
1.025 0.015 0
1.035 0.015 0
1.045 0.015 0
1.055 0.015 0
1.065 0.015 0
1.075 0.015 0
1.085 0.015 0
1.095 0.015 0
1.105 0.015 0
1.115 0.015 0
1.125 0.015 0
1.135 0.015 0
1.145 0.015 0
1.155 0.015 0
1.165 0.015 0
1.175 0.015 0
1.185 0.015 0
1.195 0.015 0
1.205 0.015 0
1.215 0.015 0
1.225 0.015 0
1.235 0.015 0
1.245 0.015 0
1.255 0.015 0
1.265 0.015 0
1.275 0.015 0
1.285 0.015 0
1.295 0.015 0
1.305 0.015 0
1.315 0.015 0
1.325 0.015 0
1.335 0.015 0
1.345 0.015 0
1.355 0.015 0
1.365 0.015 0
1.375 0.015 0
1.385 0.015 0
1.395 0.015 0
1.405 0.015 0
1.415 0.015 0
1.425 0.015 0
1.435 0.015 0
1.445 0.015 0
1.455 0.015 0
1.465 0.015 0
1.475 0.015 0
1.485 0.015 0
1.495 0.015 0
1.505 0.015 0
1.515 0.015 0
1.525 0.015 0
1.535 0.015 0
1.545 0.015 0
1.555 0.015 0
1.565 0.015 0
1.575 0.015 0
1.585 0.015 0
1.595 0.015 0
1.605 0.015 0
1.615 0.015 0
1.625 0.015 0
1.635 0.015 0
1.645 0.015 0
1.655 0.015 0
1.665 0.015 0
1.675 0.015 0
1.685 0.015 0
1.695 0.015 0
1.705 0.015 0
1.715 0.015 0
1.725 0.015 0
1.735 0.015 0
1.745 0.015 0
1.755 0.015 0
1.765 0.015 0
1.775 0.015 0
1.785 0.015 0
1.795 0.015 0
1.805 0.015 0
1.815 0.015 0
1.825 0.015 0
1.835 0.015 0
1.845 0.015 0
1.855 0.015 0
1.865 0.015 0
1.875 0.015 0
1.885 0.015 0
1.895 0.015 0
1.905 0.015 0
1.915 0.015 0
1.925 0.015 0
1.935 0.015 0
1.945 0.015 0
1.955 0.015 0
1.965 0.015 0
1.975 0.015 0
1.985 0.015 0
1.995 0.015 0
0.005 0.025 0
0.015 0.025 0
0.025 0.025 0
0.035 0.025 0
0.045 0.025 0
0.055 0.025 0
0.065 0.025 0
0.075 0.025 0
0.085 0.025 0
0.095 0.025 0
0.105 0.025 0
0.115 0.025 0
0.125 0.025 0
0.135 0.025 0
0.145 0.025 0
0.155 0.025 0
0.165 0.025 0
0.175 0.025 0
0.185 0.025 0
0.195 0.025 0
0.205 0.025 0
0.215 0.025 0
0.225 0.025 0
0.235 0.025 0
0.245 0.025 0
0.255 0.025 0
0.265 0.025 0
0.275 0.025 0
0.285 0.025 0
0.295 0.025 0
0.305 0.025 0
0.315 0.025 0
0.325 0.025 0
0.335 0.025 0
0.345 0.025 0
0.355 0.025 0
0.365 0.025 0
0.375 0.025 0
0.385 0.025 0
0.395 0.025 0
0.405 0.025 0
0.415 0.025 0
0.425 0.025 0
0.435 0.025 0
0.445 0.025 0
0.455 0.025 0
0.465 0.025 0
0.475 0.025 0
0.485 0.025 0
0.495 0.025 0
0.505 0.025 0
0.515 0.025 0
0.525 0.025 0
0.535 0.025 0
0.545 0.025 0
0.555 0.025 0
0.565 0.025 0
0.575 0.025 0
0.585 0.025 0
0.595 0.025 0
0.605 0.025 0
0.615 0.025 0
0.625 0.025 0
0.635 0.025 0
0.645 0.025 0
0.655 0.025 0
0.665 0.025 0
0.675 0.025 0
0.685 0.025 0
0.695 0.025 0
0.705 0.025 0
0.715 0.025 0
0.725 0.025 0
0.735 0.025 0
0.745 0.025 0
0.755 0.025 0
0.765 0.025 0
0.775 0.025 0
0.785 0.025 0
0.795 0.025 0
0.805 0.025 0
0.815 0.025 0
0.825 0.025 0
0.835 0.025 0
0.845 0.025 0
0.855 0.025 0
0.865 0.025 0
0.875 0.025 0
0.885 0.025 0
0.895 0.025 0
0.905 0.025 0
0.915 0.025 0
0.925 0.025 0
0.935 0.025 0
0.945 0.025 0
0.955 0.025 0
0.965 0.025 0
0.975 0.025 0
0.985 0.025 0
0.995 0.025 0
1.005 0.025 0
1.015 0.025 0
1.025 0.025 0
1.035 0.025 0
1.045 0.025 0
1.055 0.025 0
1.065 0.025 0
1.075 0.025 0
1.085 0.025 0
1.095 0.025 0
1.105 0.025 0
1.115 0.025 0
1.125 0.025 0
1.135 0.025 0
1.145 0.025 0
1.155 0.025 0
1.165 0.025 0
1.175 0.025 0
1.185 0.025 0
1.195 0.025 0
1.205 0.025 0
1.215 0.025 0
1.225 0.025 0
1.235 0.025 0
1.245 0.025 0
1.255 0.025 0
1.265 0.025 0
1.275 0.025 0
1.285 0.025 0
1.295 0.025 0
1.305 0.025 0
1.315 0.025 0
1.325 0.025 0
1.335 0.025 0
1.345 0.025 0
1.355 0.025 0
1.365 0.025 0
1.375 0.025 0
1.385 0.025 0
1.395 0.025 0
1.405 0.025 0
1.415 0.025 0
1.425 0.025 0
1.435 0.025 0
1.445 0.025 0
1.455 0.025 0
1.465 0.025 0
1.475 0.025 0
1.485 0.025 0
1.495 0.025 0
1.505 0.025 0
1.515 0.025 0
1.525 0.025 0
1.535 0.025 0
1.545 0.025 0
1.555 0.025 0
1.565 0.025 0
1.575 0.025 0
1.585 0.025 0
1.595 0.025 0
1.605 0.025 0
1.615 0.025 0
1.625 0.025 0
1.635 0.025 0
1.645 0.025 0
1.655 0.025 0
1.665 0.025 0
1.675 0.025 0
1.685 0.025 0
1.695 0.025 0
1.705 0.025 0
1.715 0.025 0
1.725 0.025 0
1.735 0.025 0
1.745 0.025 0
1.755 0.025 0
1.765 0.025 0
1.775 0.025 0
1.785 0.025 0
1.795 0.025 0
1.805 0.025 0
1.815 0.025 0
1.825 0.025 0
1.835 0.025 0
1.845 0.025 0
1.855 0.025 0
1.865 0.025 0
1.875 0.025 0
1.885 0.025 0
1.895 0.025 0
1.905 0.025 0
1.915 0.025 0
1.925 0.025 0
1.935 0.025 0
1.945 0.025 0
1.955 0.025 0
1.965 0.025 0
1.975 0.025 0
1.985 0.025 0
1.995 0.025 0
0.005 0.035 0
0.015 0.035 0
0.025 0.035 0
0.035 0.035 0
0.045 0.035 0
0.055 0.035 0
0.065 0.035 0
0.075 0.035 0
0.085 0.035 0
0.095 0.035 0
0.105 0.035 0
0.115 0.035 0
0.125 0.035 0
0.135 0.035 0
0.145 0.035 0
0.155 0.035 0
0.165 0.035 0
0.175 0.035 0
0.185 0.035 0
0.195 0.035 0
0.205 0.035 0
0.215 0.035 0
0.225 0.035 0
0.235 0.035 0
0.245 0.035 0
0.255 0.035 0
0.265 0.035 0
0.275 0.035 0
0.285 0.035 0
0.295 0.035 0
0.305 0.035 0
0.315 0.035 0
0.325 0.035 0
0.335 0.035 0
0.345 0.035 0
0.355 0.035 0
0.365 0.035 0
0.375 0.035 0
0.385 0.035 0
0.395 0.035 0
0.405 0.035 0
0.415 0.035 0
0.425 0.035 0
0.435 0.035 0
0.445 0.035 0
0.455 0.035 0
0.465 0.035 0
0.475 0.035 0
0.485 0.035 0
0.495 0.035 0
0.505 0.035 0
0.515 0.035 0
0.525 0.035 0
0.535 0.035 0
0.545 0.035 0
0.555 0.035 0
0.565 0.035 0
0.575 0.035 0
0.585 0.035 0
0.595 0.035 0
0.605 0.035 0
0.615 0.035 0
0.625 0.035 0
0.635 0.035 0
0.645 0.035 0
0.655 0.035 0
0.665 0.035 0
0.675 0.035 0
0.685 0.035 0
0.695 0.035 0
0.705 0.035 0
0.715 0.035 0
0.725 0.035 0
0.735 0.035 0
0.745 0.035 0
0.755 0.035 0
0.765 0.035 0
0.775 0.035 0
0.785 0.035 0
0.795 0.035 0
0.805 0.035 0
0.815 0.035 0
0.825 0.035 0
0.835 0.035 0
0.845 0.035 0
0.855 0.035 0
0.865 0.035 0
0.875 0.035 0
0.885 0.035 0
0.895 0.035 0
0.905 0.035 0
0.915 0.035 0
0.925 0.035 0
0.935 0.035 0
0.945 0.035 0
0.955 0.035 0
0.965 0.035 0
0.975 0.035 0
0.985 0.035 0
0.995 0.035 0
1.005 0.035 0
1.015 0.035 0
1.025 0.035 0
1.035 0.035 0
1.045 0.035 0
[...]
POINT_DATA 20000
VECTORS velocity float
0.994914 -2.52268e-05 0
0.990172 -5.84915e-05 0
0.985639 -0.000100072 0
0.981205 -0.000147571 0
0.976784 -0.000203325 0
0.972306 -0.000263062 0
0.967718 -0.000331532 0
0.96298 -0.000402146 0
0.958064 -0.000482179 0
0.952956 -0.000562558 0
0.947649 -0.000652953 0
0.94215 -0.000741925 0
0.93647 -0.000841168 0
0.930633 -0.000937283 0
0.924668 -0.0010434 0
0.918612 -0.00114483 0
0.912509 -0.00125539 0
0.906406 -0.00135995 0
0.900356 -0.00147213 0
0.894413 -0.00157741 0
0.888634 -0.00168823 0
0.883075 -0.00179175 0
0.877793 -0.00189828 0
0.872839 -0.0019977 0
0.868267 -0.0020973 0
0.86412 -0.00219054 0
0.860444 -0.00228095 0
0.857273 -0.00236629 0
0.854641 -0.00244571 0
0.852573 -0.00252176 0
0.85109 -0.0025888 0
0.850208 -0.00265441 0
0.849937 -0.00270799 0
0.850281 -0.00276219 0
0.851243 -0.00280141 0
0.852819 -0.0028432 0
0.855001 -0.00286722 0
0.857779 -0.0028956 0
0.86114 -0.00290354 0
0.865067 -0.00291737 0
0.869542 -0.00290831 0
0.874543 -0.00290639 0
0.880049 -0.00287938 0
0.886034 -0.0028605 0
0.892474 -0.00281463 0
0.899341 -0.00277771 0
0.906608 -0.00271227 0
0.914246 -0.00265645 0
0.922225 -0.00257103 0
0.930514 -0.00249588 0
0.939084 -0.00239052 0
0.947901 -0.00229612 0
0.956936 -0.00217141 0
0.966156 -0.00205845 0
0.975528 -0.0019156 0
0.985022 -0.00178545 0
0.994603 -0.00162631 0
1.00424 -0.00148097 0
1.0139 -0.00130797 0
1.02356 -0.00115006 0
1.03318 -0.00096617 0
1.04273 -0.000798762 0
1.05219 -0.000607339 0
1.06151 -0.000433882 0
1.07069 -0.000238527 0
1.07968 -6.26576e-05 0
1.08846 0.000132936 0
1.097 0.000307545 0
1.10529 0.000499754 0
1.11329 0.000669547 0
1.12099 0.000854967 0
1.12836 0.00101665 0
1.13539 0.00119222 0
1.14205 0.00134286 0
1.14833 0.00150599 0
1.15422 0.00164313 0
1.15969 0.00179174 0
1.16474 0.00191347 0
1.16936 0.00204606 0
1.17353 0.00215101 0
1.17726 0.00226671 0
1.18053 0.00235409 0
1.18335 0.00245262 0
1.18571 0.00252221 0
1.1876 0.00260384 0
1.18905 0.00265593 0
1.19004 0.00272145 0
1.19058 0.00275678 0
1.19069 0.00280739 0
1.19037 0.00282706 0
1.18964 0.00286429 0
1.1885 0.00286968 0
1.18698 0.00289528 0
1.18508 0.00288793 0
1.18283 0.00290373 0
1.18024 0.00288523 0
1.17733 0.00289306 0
1.17412 0.00286498 0
1.17064 0.00286654 0
1.16689 0.00283035 0
1.16291 0.00282716 0
1.15871 0.00278413 0
1.15431 0.00277744 0
1.14973 0.00272867 0
1.145 0.00271947 0
1.14013 0.00266582 0
1.13513 0.00265482 0
1.13004 0.00259695 0
1.12485 0.00258458 0
1.1196 0.00252301 0
1.11429 0.00250947 0
1.10894 0.00244455 0
1.10356 0.00242989 0
1.09817 0.0023619 0
1.09278 0.00234603 0
1.08739 0.00227519 0
1.08202 0.00225797 0
1.07669 0.00218453 0
1.07139 0.00216581 0
1.06613 0.00209 0
1.06093 0.00206968 0
1.05579 0.00199182 0
1.05071 0.00196985 0
1.0457 0.00189031 0
1.04077 0.00186676 0
1.03592 0.00178597 0
1.03116 0.00176102 0
1.02648 0.00167948 0
1.02189 0.00165342 0
1.01739 0.00157166 0
1.01299 0.0015449 0
1.00869 0.00146348 0
1.00449 0.0014365 0
1.00038 0.00135601 0
0.996372 0.00132938 0
0.992465 0.00125037 0
0.988658 0.00122468 0
0.984951 0.00114768 0
0.981344 0.00112356 0
0.977836 0.00104905 0
0.974428 0.0010271 0
0.971117 0.000955501 0
0.967904 0.000936283 0
0.964789 0.000867947 0
0.96177 0.000851963 0
0.958846 0.00078716 0
0.956019 0.000774824 0
0.953287 0.000713749 0
0.95065 0.000705374 0
0.948107 0.000648141 0
0.945661 0.000643928 0
0.94331 0.000590579 0
0.941055 0.000590607 0
0.938898 0.000541113 0
0.936838 0.000545339 0
0.934878 0.00049961 0
0.933019 0.000507868 0
0.931263 0.000465761 0
0.92961 0.000477769 0
0.928064 0.000439097 0
0.926626 0.000454464 0
0.925298 0.00041901 0
0.924083 0.000437252 0
0.922982 0.000404776 0
0.921998 0.00042533 0
0.921132 0.000395582 0
0.920387 0.000417826 0
0.919764 0.000390553 0
0.919264 0.000413827 0
0.918889 0.000388785 0
0.91864 0.000412413 0
0.918517 0.000389373 0
0.91852 0.000412686 0
0.91865 0.000391439 0
0.918905 0.000413796 0
0.919285 0.000394157 0
0.919788 0.000414965 0
0.920413 0.000396775 0
0.921155 0.000415505 0
0.922015 0.00039863 0
0.922987 0.000414834 0
0.924069 0.000399162 0
0.925255 0.000412477 0
0.926543 0.000397918 0
0.927927 0.000408078 0
0.929404 0.000394555 0
0.930965 0.00040139 0
0.93261 0.000388839 0
0.934329 0.000392284 0
0.93612 0.000380654 0
0.937975 0.000380763 0
0.939891 0.000370024 0
0.94186 0.000367039 0
0.943879 0.000357217 0
0.945939 0.000351722 0
0.948033 0.000343004 0
0.950141 0.000336263 0
0.95222 0.000329292 0
0.954151 0.00032378 0
0.955601 0.000320426 0
0.994895 -7.53427e-05 0
0.990136 -0.000176009 0
0.985586 -0.000298872 0
0.981138 -0.00044402 0
0.976703 -0.000607279 0
0.972211 -0.000791383 0
0.96761 -0.000990323 0
0.962859 -0.00120951 0
0.957932 -0.00144059 0
0.952812 -0.00169147 0
0.947496 -0.00195129 0
0.941986 -0.00223003 0
0.936298 -0.00251449 0
0.930453 -0.00281619 0
0.924481 -0.00312006 0
0.91842 -0.00343849 0
0.912312 -0.00375532 0
0.906206 -0.00408302 0
0.900154 -0.0044054 0
0.894211 -0.00473414 0
0.888432 -0.00505415 0
0.882876 -0.00537554 0
0.877596 -0.00568544 0
0.872649 -0.00599152 0
0.868081 -0.00628424 0
0.863942 -0.00656804 0
0.860272 -0.00683753 0
0.857111 -0.00709331 0
0.854486 -0.00733467 0
0.852428 -0.00755785 0
0.850954 -0.00776719 0
0.850084 -0.00795418 0
0.849822 -0.0081283 0
0.850179 -0.00827614 0
0.851151 -0.00841217 0
0.85274 -0.00851814 0
0.854934 -0.00861322 0
0.857725 -0.00867454 0
0.861098 -0.00872559 0
0.865039 -0.00873929 0
0.869527 -0.00874302 0
0.874543 -0.00870595 0
0.880062 -0.00865891 0
0.886063 -0.00856794 0
0.892517 -0.00846687 0
0.899399 -0.00831921 0
0.906681 -0.00816138 0
0.914334 -0.00795501 0
0.922327 -0.00773868 0
0.930632 -0.00747274 0
0.939215 -0.00719754 0
0.948046 -0.00687273 0
0.957094 -0.00654003 0
0.966326 -0.00615885 0
0.975709 -0.00577195 0
0.985212 -0.00533884 0
0.994802 -0.004903 0
1.00445 -0.00442432 0
1.01412 -0.00394666 0
1.02378 -0.00343049 0
1.0334 -0.00291975 0
1.04295 -0.00237559 0
1.0524 -0.00184173 0
1.06173 -0.00128006 0
1.0709 -0.000733861 0
1.07988 -0.000165696 0
1.08865 0.000381773 0
1.09719 0.000945372 0
1.10546 0.0014832 0
1.11345 0.00203159 0
1.12114 0.00254947 0
1.12849 0.00307286 0
1.1355 0.00356148 0
1.14214 0.00405127 0
1.1484 0.00450264 0
1.15427 0.00495169 0
1.15972 0.00535937 0
1.16475 0.0057622 0
1.16935 0.00612143 0
1.1735 0.00647434 0
1.1772 0.00678213 0
1.18045 0.00708321 0
1.18325 0.0073383 0
1.18558 0.00758735 0
1.18746 0.00779013 0
1.18888 0.00798857 0
1.18985 0.0081409 0
1.19038 0.00829149 0
1.19047 0.00839647 0
1.19013 0.00850311 0
1.18938 0.00856479 0
1.18823 0.00863218 0
1.18669 0.00865524 0
1.18478 0.00868852 0
1.18251 0.00867798 0
1.17991 0.00868244 0
1.17699 0.0086433 0
1.17378 0.00862406 0
1.17029 0.00856106 0
1.16654 0.0085228 0
1.16255 0.0084402 0
1.15835 0.00838698 0
1.15394 0.0082884 0
1.14937 0.00822354 0
1.14463 0.00811191 0
1.13976 0.00803795 0
1.13477 0.00791549 0
1.12967 0.00783422 0
1.12449 0.00770251 0
1.11924 0.00761505 0
1.11393 0.00747514 0
1.10859 0.00738208 0
1.10321 0.00723463 0
1.09783 0.00713619 0
1.09244 0.0069816 0
1.08706 0.00687775 0
1.0817 0.00671635 0
1.07637 0.00660702 0
1.07108 0.00643911 0
1.06583 0.00632429 0
1.06063 0.00615034 0
1.0555 0.00603018 0
1.05043 0.00585082 0
1.04543 0.00572572 0
1.04051 0.00554183 0
1.03566 0.00541247 0
1.03091 0.00522516 0
1.02624 0.0050925 0
1.02166 0.00490309 0
1.01717 0.00476837 0
1.01278 0.00457838 0
1.00848 0.00444306 0
1.00429 0.00425413 0
1.00019 0.00411984 0
0.996188 0.00393367 0
0.99229 0.00380214 0
0.98849 0.00362042 0
0.984792 0.00349342 0
0.981192 0.00331778 0
0.977692 0.00319701 0
0.97429 0.00302897 0
0.970988 0.00291601 0
0.967782 0.0027569 0
0.964674 0.00265319 0
0.961661 0.00250413 0
0.958745 0.00241085 0
0.955924 0.00227272 0
0.953199 0.00219079 0
0.950568 0.00206422 0
0.948032 0.00199427 0
0.945591 0.0018796 0
0.943246 0.00182196 0
0.940997 0.0017193 0
0.938845 0.00167397 0
0.93679 0.00158314 0
0.934836 0.00154982 0
0.932981 0.00147042 0
0.931229 0.00144852 0
0.929581 0.00137994 0
0.928038 0.0013686 0
0.926604 0.00131003 0
0.92528 0.00130817 0
0.924067 0.00125867 0
0.922969 0.00126498 0
0.921988 0.0012235 0
0.921124 0.00123655 0
0.920381 0.00120195 0
0.91976 0.0012202 0
0.919262 0.00119134 0
0.918888 0.00121321 0
0.91864 0.00118892 0
0.918518 0.00121283 0
0.918522 0.00119201 0
0.918652 0.00121644 0
0.918908 0.00119806 0
0.919287 0.00122158 0
0.919791 0.0012047 0
0.920413 0.00122603 0
0.921157 0.00120982 0
0.922014 0.00122786 0
0.922987 0.00121163 0
0.924066 0.00122545 0
0.925254 0.00120864 0
0.926539 0.00121752 0
0.927924 0.00119969 0
0.929397 0.00120312 0
0.93096 0.00118396 0
0.932601 0.00118164 0
0.934321 0.00116097 0
0.936108 0.00115282 0
0.937964 0.00113062 0
0.939876 0.00111689 0
0.941846 0.00109337 0
0.943862 0.00107485 0
0.945923 0.00105078 0
0.948014 0.00102939 0
0.950122 0.00100673 0
0.952198 0.000986703 0
0.95413 0.000970161 0
0.955578 0.000959948 0
0.994857 -0.000125581 0
0.990063 -0.000292483 0
0.985481 -0.000498117 0
0.981003 -0.000737814 0
0.976539 -0.00101201 0
0.972021 -0.00131498 0
0.967394 -0.00165011 0
0.962619 -0.00200975 0
0.957668 -0.00239996 0
0.952527 -0.00281067 0
0.947189 -0.00325016 0
0.94166 -0.00370578 0
0.935954 -0.00418746 0
0.930093 -0.00468022 0
0.924108 -0.00519498 0
0.918035 -0.00571506 0
0.911919 -0.00625166 0
0.905806 -0.00678733 0
0.899751 -0.00733283 0
0.893806 -0.00787115 0
0.888031 -0.00841182 0
0.882478 -0.00893954 0
0.877206 -0.00946194 0
0.872266 -0.00996654 0
0.867711 -0.0104584 0
0.863583 -0.0109288 0
0.85993 -0.0113797 0
0.856782 -0.0118068 0
0.854178 -0.0122082 0
0.852136 -0.0125847 0
0.850685 -0.0129299 0
0.849832 -0.0132499 0
0.849594 -0.0135335 0
0.849971 -0.0137918 0
0.850969 -0.014009 0
0.852578 -0.014201 0
0.854799 -0.0143471 0
0.857613 -0.0144676 0
0.861014 -0.0145376 0
0.86498 -0.0145814 0
0.869497 -0.0145699 0
0.874539 -0.0145311 0
0.880088 -0.0144325 0
0.886117 -0.0143055 0
0.892602 -0.0141147 0
0.899513 -0.0138943 0
0.906826 -0.0136069 0
0.914508 -0.0132893 0
0.922532 -0.0129028 0
0.930865 -0.0124861 0
0.939477 -0.0120001 0
0.948335 -0.0114853 0
0.957408 -0.0109024 0
0.966664 -0.0102935 0
0.976069 -0.00961945 0
0.985591 -0.00892373 0
0.995198 -0.00816767 0
1.00486 -0.00739565 0
1.01454 -0.00656979 0
1.02421 -0.00573496 0
1.03383 -0.00485415 0
1.04339 -0.00397238 0
1.05284 -0.0030535 0
1.06215 -0.00214235 0
1.07131 -0.00120355 0
1.08028 -0.000281465 0
1.08904 0.000658649 0
1.09755 0.00157314 0
1.1058 0.0024963 0
1.11377 0.00338538 0
1.12142 0.00427441 0
1.12874 0.00512166 0
1.13572 0.00596114 0
1.14232 0.00675212 0
1.14855 0.00752888 0
1.15437 0.0082516 0
1.15978 0.00895513 0
1.16476 0.00960036 0
1.16932 0.010223 0
1.17342 0.0107844 0
1.17708 0.0113216 0
1.18029 0.0117959 0
1.18304 0.0122458 0
1.18533 0.0126324 0
1.18716 0.0129962 0
1.18854 0.0132973 0
1.18947 0.0135785 0
1.18996 0.0137984 0
1.19001 0.0140026 0
1.18964 0.0141475 0
1.18885 0.014282 0
1.18767 0.0143593 0
1.1861 0.0144322 0
1.18417 0.0144502 0
1.18188 0.0144702 0
1.17926 0.0144375 0
1.17632 0.0144132 0
1.17309 0.0143379 0
1.16959 0.0142776 0
1.16582 0.0141673 0
1.16183 0.0140781 0
1.15762 0.0139394 0
1.15321 0.0138274 0
1.14863 0.0136656 0
1.14389 0.0135357 0
1.13902 0.0133552 0
1.13403 0.0132109 0
1.12894 0.0130147 0
1.12376 0.0128585 0
1.11852 0.0126487 0
1.11322 0.0124819 0
1.10788 0.0122598 0
1.10252 0.0120832 0
1.09714 0.0118495 0
1.09177 0.0116633 0
1.0864 0.0114184 0
1.08105 0.0112227 0
1.07573 0.010967 0
1.07046 0.0107618 0
1.06522 0.0104958 0
1.06004 0.0102813 0
1.05492 0.0100058 0
1.04987 0.00978252 0
1.04488 0.00949876 0
1.03998 0.00926772 0
1.03515 0.00897718 0
1.03041 0.00873989 0
1.02575 0.00844452 0
1.02119 0.00820291 0
1.01672 0.00790504 0
1.01235 0.00766141 0
1.00807 0.00736364 0
1.00389 0.00712063 0
0.999803 0.00682575 0
0.995821 0.00658616 0
0.991938 0.00629702 0
0.988155 0.00606376 0
0.984471 0.00578319 0
0.980888 0.00555913 0
0.977402 0.00528979 0
0.974017 0.00507764 0
0.970728 0.00482196 0
0.967538 0.00462418 0
0.964443 0.00438429 0
0.961446 0.00420299 0
0.958542 0.00398061 0
0.955736 0.00381751 0
0.953022 0.00361394 0
0.950405 0.00347028 0
0.947881 0.00328639 0
0.945453 0.00316291 0
0.943118 0.00299911 0
0.940881 0.00289606 0
0.938739 0.00275228 0
0.936696 0.00266942 0
0.93475 0.00254518 0
0.932905 0.00248177 0
0.931161 0.0023762 0
0.929522 0.00233106 0
0.927987 0.00224291 0
0.92656 0.00221448 0
0.925242 0.00214222 0
0.924036 0.00212859 0
0.922944 0.00207045 0
0.921967 0.00206943 0
0.921109 0.00202348 0
0.920369 0.00203272 0
0.919752 0.0019969 0
0.919257 0.00201394 0
0.918887 0.00198618 0
0.91864 0.00200851 0
0.91852 0.00198679 0
0.918524 0.00201198 0
0.918657 0.00199433 0
0.918911 0.00202008 0
0.919292 0.00200473 0
0.919793 0.00202891 0
0.920418 0.00201425 0
0.921157 0.002035 0
0.922017 0.00201964 0
0.922984 0.00203537 0
0.924066 0.00201818 0
0.925247 0.00202761 0
0.926534 0.00200768 0
0.927912 0.00200984 0
0.929388 0.0019865 0
0.930944 0.00198076 0
0.932586 0.00195359 0
0.9343 0.00193963 0
0.936089 0.00190845 0
0.937938 0.00188634 0
0.939852 0.00185134 0
0.941815 0.00182179 0
0.943832 0.00178381 0
0.945886 0.00174874 0
0.947978 0.00171007 0
0.95008 0.00167396 0
0.952157 0.00164011 0
0.954084 0.00161258 0
0.955532 0.00159572 0
0.9948 -0.000175269 0
0.989954 -0.000408967 0
0.985324 -0.000695139 0
0.9808 -0.00103153 0
0.976295 -0.00141217 0
0.971736 -0.00183819 0
0.967071 -0.0023024 0
0.962258 -0.00280892 0
0.957273 -0.00334848 0
0.952098 -0.00392763 0
0.94673 -0.00453454 0
0.941172 -0.00517754 0
0.93544 -0.00584219 0
0.929555 -0.00653791 0
0.923549 -0.00724803 0
0.91746 -0.0079824 0
0.91133 -0.00872289 0
0.905209 -0.0094791 0
0.899147 -0.0102326 0
0.893202 -0.0109922 0
0.887427 -0.0117403 0
0.881883 -0.0124843 0
0.876618 -0.013209 0
0.871694 -0.0139196 0
0.867153 -0.0146044 0
0.863048 -0.0152659 0
0.859413 -0.0158967 0
0.856293 -0.016496 0
0.85371 -0.0170612 0
0.8517 -0.0175878 0
0.850274 -0.0180783 0
0.849455 -0.0185237 0
0.849246 -0.0189317 0
0.849659 -0.0192888 0
0.850687 -0.0196073 0
0.852336 -0.0198692 0
0.854589 -0.0200912 0
0.857445 -0.0202508 0
0.860881 -0.0203688 0
0.864889 -0.0204184 0
0.869444 -0.0204242 0
0.874531 -0.0203557 0
0.880121 -0.020241 0
0.886196 -0.0200464 0
0.892724 -0.0198032 0
0.899682 -0.0194754 0
0.907038 -0.0190971 0
0.914767 -0.0186309 0
0.922834 -0.0181134 0
0.931211 -0.0175065 0
0.939865 -0.0168491 0
0.948764 -0.0161029 0
0.957875 -0.015309 0
0.967167 -0.0144295 0
0.976604 -0.0135073 0
0.986156 -0.0125051 0
0.995788 -0.0114673 0
1.00547 -0.0103578 0
1.01516 -0.00922169 0
1.02484 -0.00802404 0
1.03448 -0.00681071 0
1.04403 -0.00554767 0
1.05348 -0.00428097 0
1.06279 -0.00297751 0
1.07193 -0.00168311 0
1.08088 -0.000365385 0
1.08961 0.000930445 0
1.09809 0.00223628 0
1.10631 0.00350779 0
1.11423 0.00477666 0
1.12184 0.0059997 0
1.12911 0.00720863 0
1.13603 0.0083615 0
1.14258 0.00949041 0
1.14874 0.0105546 0
1.1545 0.011587 0
1.15985 0.0125478 0
1.16477 0.013471 0
1.16925 0.0143178 0
1.1733 0.0151233 0
1.17689 0.0158495 0
1.18002 0.0165332 0
1.18271 0.0171365 0
1.18493 0.0176981 0
1.1867 0.0181798 0
1.18802 0.0186229 0
1.18888 0.0189879 0
1.18931 0.019319 0
1.18931 0.019575 0
1.18889 0.0198032 0
1.18805 0.0199601 0
1.18683 0.0200964 0
1.18522 0.0201654 0
1.18324 0.0202216 0
1.18092 0.0202146 0
1.17827 0.020203 0
1.1753 0.0201317 0
1.17205 0.0200641 0
1.16852 0.0199397 0
1.16474 0.0198266 0
1.16073 0.0196589 0
1.15651 0.0195097 0
1.1521 0.0193071 0
1.14752 0.0191294 0
1.14278 0.0188985 0
1.13791 0.0186979 0
1.13292 0.0184437 0
1.12783 0.0182245 0
1.12266 0.0179505 0
1.11743 0.0177153 0
1.11214 0.0174237 0
1.10682 0.0171738 0
1.10147 0.0168659 0
1.09611 0.0166021 0
1.09075 0.0162785 0
1.08541 0.0160009 0
1.08008 0.0156621 0
1.07478 0.0153708 0
1.06952 0.0150174 0
1.06431 0.0147126 0
1.05915 0.0143453 0
1.05405 0.0140276 0
1.04902 0.0136477 0
1.04406 0.0133184 0
1.03918 0.0129278 0
1.03438 0.0125886 0
1.02966 0.0121897 0
1.02503 0.011843 0
1.02049 0.0114388 0
1.01605 0.0110878 0
1.0117 0.0106817 0
1.00744 0.0103298 0
1.00328 0.00992557 0
0.999228 0.00957663 0
0.995268 0.00917831 0
0.991411 0.00883636 0
0.98765 0.00844792 0
0.983992 0.008117 0
0.98043 0.00774232 0
0.976969 0.00742633 0
0.973604 0.00706902 0
0.97034 0.00677155 0
0.96717 0.00643485 0
0.964098 0.00615908 0
0.96112 0.00584572 0
0.958239 0.00559429 0
0.955451 0.00530643 0
0.952759 0.00508136 0
0.950159 0.00482055 0
0.947655 0.00462322 0
0.945243 0.00439036 0
0.942928 0.00422145 0
0.940705 0.00401678 0
0.938581 0.00387626 0
0.936551 0.00369941 0
0.934622 0.0035866 0
0.93279 0.00343659 0
0.93106 0.00335015 0
0.929432 0.00322548 0
0.92791 0.00316352 0
0.926494 0.00306219 0
0.925186 0.00302231 0
0.92399 0.00294195 0
0.922906 0.00292134 0
0.921938 0.00285929 0
0.921085 0.00285484 0
0.920353 0.00280821 0
0.91974 0.00281662 0
0.919251 0.00278245 0
0.918882 0.00280032 0
0.918641 0.00277564 0
0.918521 0.0027996 0
0.91853 0.00278153 0
0.91866 0.00280836 0
0.918919 0.00279419 0
0.919296 0.00282087 0
0.919801 0.00280814 0
0.92042 0.00283196 0
0.921163 0.0028185 0
0.922015 0.00283712 0
0.922986 0.0028211 0
0.924058 0.00283257 0
0.925243 0.0028125 0
0.926521 0.0028153 0
0.927902 0.00279006 0
0.929367 0.0027831 0
0.930926 0.00275189 0
0.932559 0.00273451 0
0.934274 0.00269691 0
0.936053 0.00266891 0
0.937905 0.00262492 0
0.939809 0.00258675 0
0.941774 0.00253705 0
0.943781 0.00249032 0
0.945838 0.002437 0
0.94792 0.0023857 0
0.950023 0.00233396 0
0.952092 0.00228713 0
0.954019 0.00224876 0
0.955461 0.00222509 0
0.994725 -0.000224856 0
0.989809 -0.000523904 0
0.985115 -0.000891673 0
0.980532 -0.00132125 0
0.975969 -0.00181112 0
0.971358 -0.00235417 0
0.966641 -0.00295231 0
0.961781 -0.00359697 0
0.956748 -0.00429284 0
0.95153 -0.00502904 0
0.94612 -0.00581227 0
0.940524 -0.00662896 0
0.934756 -0.00748705 0
0.928841 -0.00837035 0
0.922808 -0.00928733 0
0.916695 -0.0102198 0
0.910548 -0.011176 0
0.904413 -0.0121367 0
0.898346 -0.0131097 0
0.892396 -0.0140759 0
0.886627 -0.0150418 0
0.881087 -0.0159901 0
0.87584 -0.0169255 0
0.870928 -0.0178337 0
0.866412 -0.0187174 0
0.862328 -0.0195661 0
0.858726 -0.0203797 0
0.855632 -0.0211525 0
0.853089 -0.0218811 0
0.85111 -0.0225648 0
0.849727 -0.0231963 0
0.848943 -0.0237799 0
0.84878 -0.0243042 0
0.849232 -0.0247781 0
0.85031 -0.0251859 0
0.852 -0.0255409 0
0.854306 -0.0258228 0
0.857207 -0.026049 0
0.860699 -0.026195 0
0.864757 -0.0262818 0
0.86937 -0.0262809 0
0.874509 -0.0262171 0
0.88016 -0.0260584 0
0.88629 -0.0258327 0
0.89288 -0.0255057 0
0.899896 -0.0251083 0
0.907315 -0.0246045 0
0.915102 -0.0240281 0
0.92323 -0.0233421 0
0.931665 -0.0225833 0
0.940376 -0.0217145 0
0.949328 -0.0207749 0
0.958491 -0.0197281 0
0.96783 -0.0186155 0
0.977311 -0.0174015 0
0.986901 -0.0161298 0
0.996566 -0.0147659 0
1.00627 -0.0133549 0
1.01599 -0.0118639 0
1.02569 -0.0103392 0
1.03533 -0.00874885 0
1.04488 -0.00713988 0
1.05432 -0.00548165 0
1.06361 -0.00382111 0
1.07273 -0.00212853 0
1.08165 -0.000450477 0
1.09035 0.00124222 0
1.09879 0.0029038 0
1.10695 0.00456321 0
1.11482 0.00617588 0
1.12237 0.00777082 0
1.12958 0.00930488 0
1.13642 0.0108075 0
1.1429 0.0122372 0
1.14898 0.013624 0
1.15466 0.014928 0
1.15992 0.0161804 0
1.16475 0.0173426 0
1.16915 0.0184474 0
1.1731 0.0194572 0
1.1766 0.0204066 0
1.17965 0.0212587 0
1.18224 0.0220501 0
1.18437 0.0227444 0
1.18606 0.0233805 0
1.18729 0.0239214 0
1.18808 0.024409 0
1.18843 0.0248051 0
1.18836 0.0251547 0
1.18786 0.0254177 0
1.18697 0.0256424 0
1.18568 0.0257861 0
1.18401 0.0259008 0
1.18198 0.0259403 0
1.17962 0.0259607 0
1.17692 0.0259114 0
1.17392 0.0258529 0
1.17064 0.0257295 0
1.16709 0.0256063 0
1.16328 0.0254223 0
1.15926 0.0252473 0
1.15502 0.0250143 0
1.1506 0.0247981 0
1.14601 0.0245255 0
1.14128 0.0242766 0
1.13641 0.0239718 0
1.13143 0.0236963 0
1.12635 0.0233645 0
1.12119 0.0230666 0
1.11597 0.0227113 0
1.1107 0.0223935 0
1.10539 0.0220167 0
1.10007 0.0216803 0
1.09473 0.0212832 0
1.08939 0.0209285 0
1.08407 0.0205117 0
1.07877 0.020139 0
1.0735 0.019703 0
1.06827 0.0193124 0
1.06309 0.0188579 0
1.05796 0.0184501 0
1.05289 0.0179785 0
1.04789 0.0175547 0
1.04296 0.0170678 0
1.03811 0.01663 0