# vtk DataFile Version 3.0
Flow field at step 400
ASCII
DATASET STRUCTURED_GRID
DIMENSIONS 200 100 1
POINTS 20000 float
0.005 0.005 0
0.015 0.005 0
0.025 0.005 0
0.035 0.005 0
0.045 0.005 0
0.055 0.005 0
0.065 0.005 0
0.075 0.005 0
0.085 0.005 0
0.095 0.005 0
0.105 0.005 0
0.115 0.005 0
0.125 0.005 0
0.135 0.005 0
0.145 0.005 0
0.155 0.005 0
0.165 0.005 0
0.175 0.005 0
0.185 0.005 0
0.195 0.005 0
0.205 0.005 0
0.215 0.005 0
0.225 0.005 0
0.235 0.005 0
0.245 0.005 0
0.255 0.005 0
0.265 0.005 0
0.275 0.005 0
0.285 0.005 0
0.295 0.005 0
0.305 0.005 0
0.315 0.005 0
0.325 0.005 0
0.335 0.005 0
0.345 0.005 0
0.355 0.005 0
0.365 0.005 0
0.375 0.005 0
0.385 0.005 0
0.395 0.005 0
0.405 0.005 0
0.415 0.005 0
0.425 0.005 0
0.435 0.005 0
0.445 0.005 0
0.455 0.005 0
0.465 0.005 0
0.475 0.005 0
0.485 0.005 0
0.495 0.005 0
0.505 0.005 0
0.515 0.005 0
0.525 0.005 0
0.535 0.005 0
0.545 0.005 0
0.555 0.005 0
0.565 0.005 0
0.575 0.005 0
0.585 0.005 0
0.595 0.005 0
0.605 0.005 0
0.615 0.005 0
0.625 0.005 0
0.635 0.005 0
0.645 0.005 0
0.655 0.005 0
0.665 0.005 0
0.675 0.005 0
0.685 0.005 0
0.695 0.005 0
0.705 0.005 0
0.715 0.005 0
0.725 0.005 0
0.735 0.005 0
0.745 0.005 0
0.755 0.005 0
0.765 0.005 0
0.775 0.005 0
0.785 0.005 0
0.795 0.005 0
0.805 0.005 0
0.815 0.005 0
0.825 0.005 0
0.835 0.005 0
0.845 0.005 0
0.855 0.005 0
0.865 0.005 0
0.875 0.005 0
0.885 0.005 0
0.895 0.005 0
0.905 0.005 0
0.915 0.005 0
0.925 0.005 0
0.935 0.005 0
0.945 0.005 0
0.955 0.005 0
0.965 0.005 0
0.975 0.005 0
0.985 0.005 0
0.995 0.005 0
1.005 0.005 0
1.015 0.005 0
1.025 0.005 0
1.035 0.005 0
1.045 0.005 0
1.055 0.005 0
1.065 0.005 0
1.075 0.005 0
1.085 0.005 0
1.095 0.005 0
1.105 0.005 0
1.115 0.005 0
1.125 0.005 0
1.135 0.005 0
1.145 0.005 0
1.155 0.005 0
1.165 0.005 0
1.175 0.005 0
1.185 0.005 0
1.195 0.005 0
1.205 0.005 0
1.215 0.005 0
1.225 0.005 0
1.235 0.005 0
1.245 0.005 0
1.255 0.005 0
1.265 0.005 0
1.275 0.005 0
1.285 0.005 0
1.295 0.005 0
1.305 0.005 0
1.315 0.005 0
1.325 0.005 0
1.335 0.005 0
1.345 0.005 0
1.355 0.005 0
1.365 0.005 0
1.375 0.005 0
1.385 0.005 0
1.395 0.005 0
1.405 0.005 0
1.415 0.005 0
1.425 0.005 0
1.435 0.005 0
1.445 0.005 0
1.455 0.005 0
1.465 0.005 0
1.475 0.005 0
1.485 0.005 0
1.495 0.005 0
1.505 0.005 0
1.515 0.005 0
1.525 0.005 0
1.535 0.005 0
1.545 0.005 0
1.555 0.005 0
1.565 0.005 0
1.575 0.005 0
1.585 0.005 0
1.595 0.005 0
1.605 0.005 0
1.615 0.005 0
1.625 0.005 0
1.635 0.005 0
1.645 0.005 0
1.655 0.005 0
1.665 0.005 0
1.675 0.005 0
1.685 0.005 0
1.695 0.005 0
1.705 0.005 0
1.715 0.005 0
1.725 0.005 0
1.735 0.005 0
1.745 0.005 0
1.755 0.005 0
1.765 0.005 0
1.775 0.005 0
1.785 0.005 0
1.795 0.005 0
1.805 0.005 0
1.815 0.005 0
1.825 0.005 0
1.835 0.005 0
1.845 0.005 0
1.855 0.005 0
1.865 0.005 0
1.875 0.005 0
1.885 0.005 0
1.895 0.005 0
1.905 0.005 0
1.915 0.005 0
1.925 0.005 0
1.935 0.005 0
1.945 0.005 0
1.955 0.005 0
1.965 0.005 0
1.975 0.005 0
1.985 0.005 0
1.995 0.005 0
0.005 0.015 0
0.015 0.015 0
0.025 0.015 0
0.035 0.015 0
0.045 0.015 0
0.055 0.015 0
0.065 0.015 0
0.075 0.015 0
0.085 0.015 0
0.095 0.015 0
0.105 0.015 0
0.115 0.015 0
0.125 0.015 0
0.135 0.015 0
0.145 0.015 0
0.155 0.015 0
0.165 0.015 0
0.175 0.015 0
0.185 0.015 0
0.195 0.015 0
0.205 0.015 0
0.215 0.015 0
0.225 0.015 0
0.235 0.015 0
0.245 0.015 0
0.255 0.015 0
0.265 0.015 0
0.275 0.015 0
0.285 0.015 0
0.295 0.015 0
0.305 0.015 0
0.315 0.015 0
0.325 0.015 0
0.335 0.015 0
0.345 0.015 0
0.355 0.015 0
0.365 0.015 0
0.375 0.015 0
0.385 0.015 0
0.395 0.015 0
0.405 0.015 0
0.415 0.015 0
0.425 0.015 0
0.435 0.015 0
0.445 0.015 0
0.455 0.015 0
0.465 0.015 0
0.475 0.015 0
0.485 0.015 0
0.495 0.015 0
0.505 0.015 0
0.515 0.015 0
0.525 0.015 0
0.535 0.015 0
0.545 0.015 0
0.555 0.015 0
0.565 0.015 0
0.575 0.015 0
0.585 0.015 0
0.595 0.015 0
0.605 0.015 0
0.615 0.015 0
0.625 0.015 0
0.635 0.015 0
0.645 0.015 0
0.655 0.015 0
0.665 0.015 0
0.675 0.015 0
0.685 0.015 0
0.695 0.015 0
0.705 0.015 0
0.715 0.015 0
0.725 0.015 0
0.735 0.015 0
0.745 0.015 0
0.755 0.015 0
0.765 0.015 0
0.775 0.015 0
0.785 0.015 0
0.795 0.015 0
0.805 0.015 0
0.815 0.015 0
0.825 0.015 0
0.835 0.015 0
0.845 0.015 0
0.855 0.015 0
0.865 0.015 0
0.875 0.015 0
0.885 0.015 0
0.895 0.015 0
0.905 0.015 0
0.915 0.015 0
0.925 0.015 0
0.935 0.015 0
0.945 0.015 0
0.955 0.015 0
0.965 0.015 0
0.975 0.015 0
0.985 0.015 0
0.995 0.015 0
1.005 0.015 0
1.015 0.015 0
1.025 0.015 0
1.035 0.015 0
1.045 0.015 0
1.055 0.015 0
1.065 0.015 0
1.075 0.015 0
1.085 0.015 0
1.095 0.015 0
1.105 0.015 0
1.115 0.015 0
1.125 0.015 0
1.135 0.015 0
1.145 0.015 0
1.155 0.015 0
1.165 0.015 0
1.175 0.015 0
1.185 0.015 0
1.195 0.015 0
1.205 0.015 0
1.215 0.015 0
1.225 0.015 0
1.235 0.015 0
1.245 0.015 0
1.255 0.015 0
1.265 0.015 0
1.275 0.015 0
1.285 0.015 0
1.295 0.015 0
1.305 0.015 0
1.315 0.015 0
1.325 0.015 0
1.335 0.015 0
1.345 0.015 0
1.355 0.015 0
1.365 0.015 0
1.375 0.015 0
1.385 0.015 0
1.395 0.015 0
1.405 0.015 0
1.415 0.015 0
1.425 0.015 0
1.435 0.015 0
1.445 0.015 0
1.455 0.015 0
1.465 0.015 0
1.475 0.015 0
1.485 0.015 0
1.495 0.015 0
1.505 0.015 0
1.515 0.015 0
1.525 0.015 0
1.535 0.015 0
1.545 0.015 0
1.555 0.015 0
1.565 0.015 0
1.575 0.015 0
1.585 0.015 0
1.595 0.015 0
1.605 0.015 0
1.615 0.015 0
1.625 0.015 0
1.635 0.015 0
1.645 0.015 0
1.655 0.015 0
1.665 0.015 0
1.675 0.015 0
1.685 0.015 0
1.695 0.015 0
1.705 0.015 0
1.715 0.015 0
1.725 0.015 0
1.735 0.015 0
1.745 0.015 0
1.755 0.015 0
1.765 0.015 0
1.775 0.015 0
1.785 0.015 0
1.795 0.015 0
1.805 0.015 0
1.815 0.015 0
1.825 0.015 0
1.835 0.015 0
1.845 0.015 0
1.855 0.015 0
1.865 0.015 0
1.875 0.015 0
1.885 0.015 0
1.895 0.015 0
1.905 0.015 0
1.915 0.015 0
1.925 0.015 0
1.935 0.015 0
1.945 0.015 0
1.955 0.015 0
1.965 0.015 0
1.975 0.015 0
1.985 0.015 0
1.995 0.015 0
0.005 0.025 0
0.015 0.025 0
0.025 0.025 0
0.035 0.025 0
0.045 0.025 0
0.055 0.025 0
0.065 0.025 0
0.075 0.025 0
0.085 0.025 0
0.095 0.025 0
0.105 0.025 0
0.115 0.025 0
0.125 0.025 0
0.135 0.025 0
0.145 0.025 0
0.155 0.025 0
0.165 0.025 0
0.175 0.025 0
0.185 0.025 0
0.195 0.025 0
0.205 0.025 0
0.215 0.025 0
0.225 0.025 0
0.235 0.025 0
0.245 0.025 0
0.255 0.025 0
0.265 0.025 0
0.275 0.025 0
0.285 0.025 0
0.295 0.025 0
0.305 0.025 0
0.315 0.025 0
0.325 0.025 0
0.335 0.025 0
0.345 0.025 0
0.355 0.025 0
0.365 0.025 0
0.375 0.025 0
0.385 0.025 0
0.395 0.025 0
0.405 0.025 0
0.415 0.025 0
0.425 0.025 0
0.435 0.025 0
0.445 0.025 0
0.455 0.025 0
0.465 0.025 0
0.475 0.025 0
0.485 0.025 0
0.495 0.025 0
0.505 0.025 0
0.515 0.025 0
0.525 0.025 0
0.535 0.025 0
0.545 0.025 0
0.555 0.025 0
0.565 0.025 0
0.575 0.025 0
0.585 0.025 0
0.595 0.025 0
0.605 0.025 0
0.615 0.025 0
0.625 0.025 0
0.635 0.025 0
0.645 0.025 0
0.655 0.025 0
0.665 0.025 0
0.675 0.025 0
0.685 0.025 0
0.695 0.025 0
0.705 0.025 0
0.715 0.025 0
0.725 0.025 0
0.735 0.025 0
0.745 0.025 0
0.755 0.025 0
0.765 0.025 0
0.775 0.025 0
0.785 0.025 0
0.795 0.025 0
0.805 0.025 0
0.815 0.025 0
0.825 0.025 0
0.835 0.025 0
0.845 0.025 0
0.855 0.025 0
0.865 0.025 0
0.875 0.025 0
0.885 0.025 0
0.895 0.025 0
0.905 0.025 0
0.915 0.025 0
0.925 0.025 0
0.935 0.025 0
0.945 0.025 0
0.955 0.025 0
0.965 0.025 0
0.975 0.025 0
0.985 0.025 0
0.995 0.025 0
1.005 0.025 0
1.015 0.025 0
1.025 0.025 0
1.035 0.025 0
1.045 0.025 0
1.055 0.025 0
1.065 0.025 0
1.075 0.025 0
1.085 0.025 0
1.095 0.025 0
1.105 0.025 0
1.115 0.025 0
1.125 0.025 0
1.135 0.025 0
1.145 0.025 0
1.155 0.025 0
1.165 0.025 0
1.175 0.025 0
1.185 0.025 0
1.195 0.025 0
1.205 0.025 0
1.215 0.025 0
1.225 0.025 0
1.235 0.025 0
1.245 0.025 0
1.255 0.025 0
1.265 0.025 0
1.275 0.025 0
1.285 0.025 0
1.295 0.025 0
1.305 0.025 0
1.315 0.025 0
1.325 0.025 0
1.335 0.025 0
1.345 0.025 0
1.355 0.025 0
1.365 0.025 0
1.375 0.025 0
1.385 0.025 0
1.395 0.025 0
1.405 0.025 0
1.415 0.025 0
1.425 0.025 0
1.435 0.025 0
1.445 0.025 0
1.455 0.025 0
1.465 0.025 0
1.475 0.025 0
1.485 0.025 0
1.495 0.025 0
1.505 0.025 0
1.515 0.025 0
1.525 0.025 0
1.535 0.025 0
1.545 0.025 0
1.555 0.025 0
1.565 0.025 0
1.575 0.025 0
1.585 0.025 0
1.595 0.025 0
1.605 0.025 0
1.615 0.025 0
1.625 0.025 0
1.635 0.025 0
1.645 0.025 0
1.655 0.025 0
1.665 0.025 0
1.675 0.025 0
1.685 0.025 0
1.695 0.025 0
1.705 0.025 0
1.715 0.025 0
1.725 0.025 0
1.735 0.025 0
1.745 0.025 0
1.755 0.025 0
1.765 0.025 0
1.775 0.025 0
1.785 0.025 0
1.795 0.025 0
1.805 0.025 0
1.815 0.025 0
1.825 0.025 0
1.835 0.025 0
1.845 0.025 0
1.855 0.025 0
1.865 0.025 0
1.875 0.025 0
1.885 0.025 0
1.895 0.025 0
1.905 0.025 0
1.915 0.025 0
1.925 0.025 0
1.935 0.025 0
1.945 0.025 0
1.955 0.025 0
1.965 0.025 0
1.975 0.025 0
1.985 0.025 0
1.995 0.025 0
0.005 0.035 0
0.015 0.035 0
0.025 0.035 0
0.035 0.035 0
0.045 0.035 0
0.055 0.035 0
0.065 0.035 0
0.075 0.035 0
0.085 0.035 0
0.095 0.035 0
0.105 0.035 0
0.115 0.035 0
0.125 0.035 0
0.135 0.035 0
0.145 0.035 0
0.155 0.035 0
0.165 0.035 0
0.175 0.035 0
0.185 0.035 0
0.195 0.035 0
0.205 0.035 0
0.215 0.035 0
0.225 0.035 0
0.235 0.035 0
0.245 0.035 0
0.255 0.035 0
0.265 0.035 0
0.275 0.035 0
0.285 0.035 0
0.295 0.035 0
0.305 0.035 0
0.315 0.035 0
0.325 0.035 0
0.335 0.035 0
0.345 0.035 0
0.355 0.035 0
0.365 0.035 0
0.375 0.035 0
0.385 0.035 0
0.395 0.035 0
0.405 0.035 0
0.415 0.035 0
0.425 0.035 0
0.435 0.035 0
0.445 0.035 0
0.455 0.035 0
0.465 0.035 0
0.475 0.035 0
0.485 0.035 0
0.495 0.035 0
0.505 0.035 0
0.515 0.035 0
0.525 0.035 0
0.535 0.035 0
0.545 0.035 0
0.555 0.035 0
0.565 0.035 0
0.575 0.035 0
0.585 0.035 0
0.595 0.035 0
0.605 0.035 0
0.615 0.035 0
0.625 0.035 0
0.635 0.035 0
0.645 0.035 0
0.655 0.035 0
0.665 0.035 0
0.675 0.035 0
0.685 0.035 0
0.695 0.035 0
0.705 0.035 0
0.715 0.035 0
0.725 0.035 0
0.735 0.035 0
0.745 0.035 0
0.755 0.035 0
0.765 0.035 0
0.775 0.035 0
0.785 0.035 0
0.795 0.035 0
0.805 0.035 0
0.815 0.035 0
0.825 0.035 0
0.835 0.035 0
0.845 0.035 0
0.855 0.035 0
0.865 0.035 0
0.875 0.035 0
0.885 0.035 0
0.895 0.035 0
0.905 0.035 0
0.915 0.035 0
0.925 0.035 0
0.935 0.035 0
0.945 0.035 0
0.955 0.035 0
0.965 0.035 0
0.975 0.035 0
0.985 0.035 0
0.995 0.035 0
1.005 0.035 0
1.015 0.035 0
1.025 0.035 0
1.035 0.035 0
1.045 0.035 0
[...]
POINT_DATA 20000
VECTORS velocity float
0.999652 -5.72293e-06 0
0.999316 -1.31007e-05 0
0.998974 -2.31791e-05 0
0.998609 -3.41035e-05 0
0.998208 -4.91107e-05 0
0.997758 -6.41164e-05 0
0.997245 -8.5308e-05 0
0.996657 -0.00010552 0
0.99598 -0.000134723 0
0.995204 -0.000161738 0
0.994314 -0.000201265 0
0.993298 -0.000237058 0
0.992142 -0.000289601 0
0.990836 -0.000336402 0
0.989366 -0.000404871 0
0.987724 -0.000464988 0
0.985899 -0.000552269 0
0.983887 -0.000627839 0
0.981682 -0.000736448 0
0.979285 -0.000829111 0
0.976697 -0.000960771 0
0.973928 -0.00107128 0
0.970986 -0.00122646 0
0.967893 -0.00135432 0
0.964666 -0.0015318 0
0.961335 -0.00167491 0
0.957931 -0.00187149 0
0.954493 -0.00202604 0
0.951058 -0.00223649 0
0.947675 -0.00239702 0
0.944387 -0.00261427 0
0.941245 -0.00277402 0
0.938298 -0.00298965 0
0.935594 -0.00314105 0
0.933181 -0.00334603 0
0.931102 -0.0034814 0
0.929399 -0.00366678 0
0.928108 -0.00377894 0
0.92726 -0.0039366 0
0.92688 -0.00401942 0
0.92699 -0.0041426 0
0.927602 -0.00419135 0
0.928724 -0.004275 0
0.930356 -0.00428651 0
0.932497 -0.00432739 0
0.935134 -0.00430006 0
0.938255 -0.00429672 0
0.941839 -0.00423043 0
0.945862 -0.00418307 0
0.950298 -0.004079 0
0.955116 -0.00398922 0
0.960282 -0.00384968 0
0.965764 -0.00372031 0
0.97152 -0.00354852 0
0.977517 -0.00338334 0
0.983711 -0.00318329 0
0.990065 -0.00298686 0
0.996538 -0.00276311 0
1.00309 -0.0025405 0
1.00968 -0.00229803 0
1.01628 -0.00205467 0
1.02283 -0.00179869 0
1.02931 -0.00154014 0
1.03568 -0.00127597 0
1.04191 -0.00100779 0
1.04796 -0.000740682 0
1.0538 -0.000468231 0
1.0594 -0.000203218 0
1.06474 6.84649e-05 0
1.06978 0.000326666 0
1.07452 0.000592981 0
1.07892 0.000840091 0
1.08297 0.00109696 0
1.08664 0.00132922 0
1.08994 0.00157315 0
1.09284 0.00178738 0
1.09535 0.00201549 0
1.09744 0.00220911 0
1.09912 0.00241915 0
1.10038 0.00259023 0
1.10124 0.00278052 0
1.10168 0.00292775 0
1.10172 0.00309718 0
1.10137 0.00321986 0
1.10063 0.00336785 0
1.09951 0.00346586 0
1.09803 0.00359226 0
1.09621 0.00366599 0
1.09406 0.00377106 0
1.0916 0.0038214 0
1.08885 0.00390571 0
1.08583 0.00393394 0
1.08255 0.00399836 0
1.07905 0.00400614 0
1.07534 0.00405174 0
1.07144 0.00404097 0
1.06738 0.00406902 0
1.06318 0.00404184 0
1.05887 0.00405372 0
1.05445 0.0040124 0
1.04996 0.0040096 0
1.04542 0.00395646 0
1.04084 0.00394052 0
1.03624 0.0038779 0
1.03166 0.00385038 0
1.02709 0.00378054 0
1.02256 0.00374296 0
1.01809 0.00366804 0
1.0137 0.00362187 0
1.00939 0.00354383 0
1.00518 0.00349042 0
1.0011 0.00341102 0
0.997133 0.00335157 0
0.993312 0.00327233 0
0.98964 0.00320787 0
0.986131 0.00313004 0
0.98279 0.00306141 0
0.979628 0.00298599 0
0.97665 0.00291382 0
0.973864 0.00284159 0
0.971275 0.00276631 0
0.968888 0.0026978 0
0.966704 0.0026197 0
0.964729 0.00255525 0
0.962962 0.00247447 0
0.961405 0.00241424 0
0.960056 0.00233083 0
0.958916 0.00227487 0
0.957979 0.00218886 0
0.957246 0.00213708 0
0.956708 0.00204851 0
0.956365 0.00200078 0
0.956205 0.00190975 0
0.956227 0.00186587 0
0.956419 0.00177259 0
0.956775 0.00173231 0
0.957284 0.00163712 0
0.957939 0.00160021 0
0.958728 0.0015036 0
0.959642 0.0014698 0
0.960667 0.00137239 0
0.961796 0.00134145 0
0.963014 0.00124402 0
0.964312 0.0012157 0
0.965677 0.00111913 0
0.967099 0.00109322 0
0.968565 0.000998464 0
0.970065 0.000974768 0
0.971588 0.000882818 0
0.973123 0.000861163 0
0.974661 0.000773 0
0.976192 0.000753243 0
0.977708 0.000669788 0
0.979199 0.000651814 0
0.980659 0.000573883 0
0.98208 0.000557598 0
0.983457 0.000485863 0
0.984784 0.000471194 0
0.986057 0.00040615 0
0.98727 0.000393036 0
0.988424 0.000334983 0
0.989513 0.000323369 0
0.990538 0.0002724 0
0.991495 0.00026223 0
0.992388 0.000218241 0
0.993214 0.000209451 0
0.993977 0.000172153 0
0.994675 0.000164665 0
0.995314 0.000133616 0
0.995893 0.000127341 0
0.996417 0.000101976 0
0.996888 9.68082e-05 0
0.997309 7.6487e-05 0
0.997684 7.23092e-05 0
0.998016 5.63491e-05 0
0.998308 5.30376e-05 0
0.998564 4.0755e-05 0
0.998787 3.81832e-05 0
0.99898 2.89247e-05 0
0.999147 2.69691e-05 0
0.99929 2.01357e-05 0
0.999411 1.86805e-05 0
0.999515 1.37438e-05 0
0.999602 1.26846e-05 0
0.999675 9.19462e-06 0
0.999736 8.44079e-06 0
0.999787 6.02706e-06 0
0.999829 5.50263e-06 0
0.999863 3.86982e-06 0
0.999891 3.51326e-06 0
0.999914 2.43316e-06 0
0.999932 2.1963e-06 0
0.999947 1.49781e-06 0
0.999959 1.34415e-06 0
0.999968 9.03038e-07 0
0.999975 8.05993e-07 0
0.999981 5.36372e-07 0
0.999986 4.78366e-07 0
0.999989 3.32243e-07 0
0.999991 3.08356e-07 0
0.999647 -1.68882e-05 0
0.999306 -4.00457e-05 0
0.998959 -6.84092e-05 0
0.998589 -0.000104219 0
0.998183 -0.000144985 0
0.997726 -0.000195844 0
0.997207 -0.000251963 0
0.996611 -0.0003221 0
0.995927 -0.000398147 0
0.99514 -0.000493321 0
0.994241 -0.000595205 0
0.993212 -0.000722422 0
0.992045 -0.000857073 0
0.990722 -0.00102421 0
0.989239 -0.00119912 0
0.987578 -0.00141433 0
0.985737 -0.0016369 0
0.983704 -0.0019078 0
0.981481 -0.00218438 0
0.979061 -0.00251694 0
0.976455 -0.00285173 0
0.973662 -0.00324895 0
0.970703 -0.00364273 0
0.967587 -0.00410341 0
0.964345 -0.00455238 0
0.960995 -0.00507005 0
0.957579 -0.00556511 0
0.954126 -0.00612747 0
0.950685 -0.00665406 0
0.947294 -0.00724327 0
0.944006 -0.00778199 0
0.940865 -0.00837571 0
0.937925 -0.00890374 0
0.935231 -0.00947683 0
0.932832 -0.00996978 0
0.930771 -0.0104965 0
0.92909 -0.0109305 0
0.927824 -0.0113865 0
0.927003 -0.0117401 0
0.926655 -0.0121044 0
0.926797 -0.0123599 0
0.927444 -0.012616 0
0.928601 -0.0127605 0
0.930273 -0.0128968 0
0.932449 -0.0129223 0
0.935126 -0.0129327 0
0.938282 -0.0128359 0
0.941904 -0.0127189 0
0.945962 -0.0125011 0
0.950434 -0.0122597 0
0.955284 -0.011926 0
0.960484 -0.011567 0
0.965992 -0.0111257 0
0.971779 -0.0106589 0
0.977798 -0.010121 0
0.984017 -0.00955867 0
0.99039 -0.00893742 0
0.996883 -0.00829377 0
1.00345 -0.00760372 0
1.01006 -0.00689431 0
1.01666 -0.00615115 0
1.02322 -0.00539226 0
1.02971 -0.00461216 0
1.03608 -0.00382026 0
1.0423 -0.0030194 0
1.04835 -0.00221073 0
1.05418 -0.00140482 0
1.05978 -0.000594865 0
1.06511 0.00020124 0
1.07014 0.000998074 0
1.07486 0.00177073 0
1.07925 0.00254147 0
1.08328 0.00327853 0
1.08694 0.00401181 0
1.09022 0.00470282 0
1.0931 0.00538911 0
1.09558 0.00602542 0
1.09766 0.006657 0
1.09931 0.00723186 0
1.10056 0.00780289 0
1.10139 0.0083114 0
1.10181 0.00881782 0
1.10183 0.00925689 0
1.10146 0.00969634 0
1.10069 0.0100646 0
1.09956 0.0104362 0
1.09806 0.0107338 0
1.09622 0.0110381 0
1.09405 0.0112666 0
1.09158 0.0115055 0
1.08881 0.0116676 0
1.08577 0.0118437 0
1.08248 0.0119433 0
1.07896 0.0120602 0
1.07524 0.012102 0
1.07133 0.012164 0
1.06726 0.0121533 0
1.06306 0.0121652 0
1.05873 0.0121078 0
1.05431 0.0120748 0
1.04981 0.0119767 0
1.04526 0.0119041 0
1.04068 0.0117717 0
1.03608 0.0116649 0
1.03149 0.0115043 0
1.02692 0.0113687 0
1.02239 0.0111858 0
1.01792 0.0110265 0
1.01353 0.0108269 0
1.00922 0.0106488 0
1.00501 0.0104375 0
1.00092 0.0102449 0
0.996964 0.0100264 0
0.993142 0.009823 0
0.989474 0.00960119 0
0.985964 0.00939008 0
0.982628 0.009168 0
0.979465 0.00895169 0
0.976492 0.00873174 0
0.973706 0.00851206 0
0.971122 0.00829597 0
0.968734 0.00807417 0
0.966555 0.00786307 0
0.964579 0.0076399 0
0.962817 0.00743444 0
0.961259 0.00721025 0
0.959914 0.00701068 0
0.958772 0.00678557 0
0.95784 0.00659187 0
0.957105 0.00636582 0
0.956572 0.00617781 0
0.956226 0.0059508 0
0.95607 0.00576822 0
0.95609 0.00554036 0
0.956285 0.00536299 0
0.95664 0.00513458 0
0.957152 0.00496228 0
0.957806 0.00473388 0
0.958598 0.00456662 0
0.959511 0.0043391 0
0.960539 0.00417702 0
0.961668 0.00395154 0
0.962889 0.00379492 0
0.964187 0.00357287 0
0.965555 0.00342214 0
0.966978 0.00320517 0
0.968447 0.00306087 0
0.969949 0.00285071 0
0.971474 0.00271347 0
0.973013 0.00251195 0
0.974553 0.00238243 0
0.976089 0.0021913 0
0.977606 0.00207017 0
0.979103 0.00189105 0
0.980565 0.00177892 0
0.981992 0.00161321 0
0.983371 0.00151057 0
0.984704 0.00135938 0
0.985979 0.0012666 0
0.987199 0.00113065 0
0.988354 0.00104792 0
0.98945 0.000927549 0
0.990476 0.000854849 0
0.991441 0.000749991 0
0.992335 0.000687093 0
0.993168 0.000597286 0
0.993932 0.000543761 0
0.994637 0.000468194 0
0.995277 0.000423432 0
0.995861 0.000361003 0
0.996387 0.000324244 0
0.996862 0.000273637 0
0.997285 0.000244016 0
0.997663 0.000203786 0
0.997996 0.000180381 0
0.998292 0.000149033 0
0.998549 0.000130908 0
0.998775 0.000106977 0
0.998969 9.32275e-05 0
0.999138 7.53367e-05 0
0.999281 6.51241e-05 0
0.999405 5.20298e-05 0
0.999509 4.46055e-05 0
0.999597 3.52262e-05 0
0.999671 2.99454e-05 0
0.999733 2.33722e-05 0
0.999784 1.9698e-05 0
0.999827 1.51921e-05 0
0.999861 1.26921e-05 0
0.99989 9.67142e-06 0
0.999913 8.00839e-06 0
0.999931 6.02849e-06 0
0.999946 4.94719e-06 0
0.999958 3.67901e-06 0
0.999968 2.99259e-06 0
0.999975 2.20117e-06 0
0.999981 1.77957e-06 0
0.999985 1.31146e-06 0
0.999989 1.08208e-06 0
0.999991 8.90594e-07 0
0.999637 -2.84067e-05 0
0.999287 -6.64181e-05 0
0.99893 -0.000115056 0
0.99855 -0.00017286 0
0.998133 -0.000243798 0
0.997665 -0.000324861 0
0.997131 -0.000423557 0
0.996522 -0.000534359 0
0.995819 -0.000669038 0
0.995016 -0.000818537 0
0.994092 -0.000999723 0
0.993042 -0.00119887 0
0.991846 -0.00143885 0
0.990499 -0.00169996 0
0.98898 -0.00201201 0
0.98729 -0.00234783 0
0.985409 -0.00274503 0
0.983342 -0.00316738 0
0.981075 -0.00366101 0
0.978619 -0.00417903 0
0.975966 -0.00477658 0
0.973137 -0.00539468 0
0.970132 -0.00609769 0
0.966982 -0.00681351 0
0.963697 -0.00761559 0
0.96032 -0.00841837 0
0.95687 -0.00930391 0
0.953398 -0.0101737 0
0.949935 -0.0111176 0
0.946538 -0.0120257 0
0.943243 -0.0129946 0
0.940109 -0.0139052 0
0.937179 -0.0148598 0
0.934507 -0.015733 0
0.932135 -0.0166311 0
0.930111 -0.017426 0
0.928472 -0.0182263 0
0.927255 -0.0189046 0
0.926492 -0.0195697 0
0.926203 -0.0200984 0
0.926413 -0.0205975 0
0.927127 -0.0209506 0
0.928358 -0.0212607 0
0.9301 -0.0214205 0
0.932355 -0.0215272 0
0.935103 -0.0214839 0
0.938338 -0.0213809 0
0.942029 -0.0211328 0
0.946163 -0.0208215 0
0.9507 -0.0203736 0
0.955621 -0.0198621 0
0.960879 -0.0192255 0
0.966451 -0.0185274 0
0.972288 -0.0177182 0
0.978362 -0.0168521 0
0.984623 -0.0158905 0
0.991041 -0.0148782 0
0.997565 -0.0137876 0
1.00417 -0.012654 0
1.01079 -0.0114597 0
1.01742 -0.0102314 0
1.02399 -0.00896037 0
1.03049 -0.00766467 0
1.03686 -0.00634403 0
1.04309 -0.00500828 0
1.04913 -0.00366493 0
1.05495 -0.00231567 0
1.06053 -0.000975311 0
1.06584 0.000362449 0
1.07086 0.00167588 0
1.07555 0.00297925 0
1.07991 0.00424413 0
1.08391 0.00549277 0
1.08753 0.0066902 0
1.09077 0.00786666 0
1.09362 0.00898069 0
1.09606 0.0100706 0
1.09809 0.0110884 0
1.09971 0.0120805 0
1.10091 0.0129924 0
1.1017 0.0138786 0
1.10208 0.014678 0
1.10205 0.015453 0
1.10163 0.0161361 0
1.10083 0.0167974 0
1.09965 0.0173633 0
1.09812 0.0179108 0
1.09624 0.0183609 0
1.09404 0.0187968 0
1.09152 0.0191347 0
1.08872 0.0194628 0
1.08565 0.0196938 0
1.08233 0.0199199 0
1.07879 0.020051 0
1.07504 0.0201818 0
1.07111 0.0202211 0
1.06702 0.0202645 0
1.0628 0.020221 0
1.05845 0.0201857 0
1.05402 0.0200691 0
1.04951 0.019964 0
1.04495 0.0197844 0
1.04035 0.0196188 0
1.03575 0.0193863 0
1.03115 0.0191695 0
1.02658 0.0188939 0
1.02205 0.0186349 0
1.01758 0.0183256 0
1.01318 0.0180329 0
1.00887 0.0176986 0
1.00466 0.01738 0
1.00058 0.0170285 0
0.99662 0.0166909 0
0.992806 0.016329 0
0.989137 0.0159781 0
0.985636 0.0156114 0
0.982298 0.0152521 0
0.979146 0.0148851 0
0.976171 0.0145211 0
0.973396 0.014157 0
0.97081 0.0137908 0
0.968432 0.0134322 0
0.966252 0.0130655 0
0.964286 0.0127135 0
0.962521 0.0123473 0
0.960972 0.0120028 0
0.959625 0.0116374 0
0.958492 0.0113005 0
0.957556 0.010936 0
0.956829 0.0106065 0
0.956292 0.0102427 0
0.955954 0.00992027 0
0.955795 0.00955716 0
0.955822 0.00924157 0
0.956013 0.00887932 0
0.956375 0.00857039 0
0.956884 0.0082095 0
0.957545 0.0079073 0
0.958334 0.00754871 0
0.959253 0.00725361 0
0.960281 0.00689869 0
0.961415 0.00661135 0
0.962636 0.00626189 0
0.96394 0.00598326 0
0.96531 0.00564141 0
0.966738 0.00537268 0
0.968211 0.00504087 0
0.969718 0.00478341 0
0.971249 0.00446422 0
0.972792 0.00421949 0
0.974341 0.00391553 0
0.97588 0.003685 0
0.977408 0.00339873 0
0.978907 0.0031838 0
0.980381 0.00291744 0
0.981812 0.00271932 0
0.983204 0.00247469 0
0.98454 0.00229431 0
0.985828 0.00207276 0
0.987052 0.00191074 0
0.988221 0.00171304 0
0.98932 0.0015696 0
0.99036 0.00139592 0
0.991327 0.00127086 0
0.992235 0.00112078 0
0.993071 0.00101352 0
0.993848 0.00088603 0
0.994555 0.0007956 0
0.995207 0.00068923 0
0.995794 0.000614343 0
0.99633 0.000527227 0
0.996807 0.000466358 0
0.997239 0.000396364 0
0.99762 0.000347835 0
0.997961 0.000292697 0
0.998258 0.000254768 0
0.998522 0.000212203 0
0.998749 0.000183158 0
0.998948 0.00015097 0
0.999118 0.000129188 0
0.999266 0.000105355 0
0.999391 8.93624e-05 0
0.999498 7.20892e-05 0
0.999587 6.05987e-05 0
0.999663 4.83485e-05 0
0.999726 4.02715e-05 0
0.999779 3.17724e-05 0
0.999822 2.62192e-05 0
0.999858 2.04522e-05 0
0.999886 1.67188e-05 0
0.99991 1.28923e-05 0
0.999929 1.04385e-05 0
0.999945 7.95665e-06 0
0.999957 6.38068e-06 0
0.999967 4.80887e-06 0
0.999974 3.82285e-06 0
0.99998 2.85951e-06 0
0.999985 2.27497e-06 0
0.999988 1.75173e-06 0
0.999991 1.51227e-06 0
0.999622 -3.97163e-05 0
0.999257 -9.36971e-05 0
0.998886 -0.000160861 0
0.998491 -0.000243823 0
0.998058 -0.000340851 0
0.997571 -0.000458115 0
0.997019 -0.000592163 0
0.996384 -0.000753306 0
0.99566 -0.000935354 0
0.994824 -0.00115348 0
0.993873 -0.00139765 0
0.992784 -0.00168871 0
0.991553 -0.00201151 0
0.990157 -0.0023934 0
0.988598 -0.00281264 0
0.986851 -0.00330382 0
0.984923 -0.00383699 0
0.982792 -0.00445458 0
0.980473 -0.00511664 0
0.977948 -0.00587384 0
0.975241 -0.00667453 0
0.972342 -0.00757769 0
0.969284 -0.00851859 0
0.966068 -0.00956431 0
0.962737 -0.0106362 0
0.959302 -0.011809 0
0.955817 -0.0129903 0
0.952303 -0.0142617 0
0.948821 -0.0155178 0
0.945401 -0.0168468 0
0.942107 -0.0181324 0
0.938976 -0.019468 0
0.936067 -0.0207297 0
0.933423 -0.022015 0
0.931095 -0.0231958 0
0.929123 -0.0243728 0
0.927549 -0.0254172 0
0.926408 -0.0264312 0
0.925725 -0.0272889 0
0.92553 -0.0280926 0
0.925833 -0.0287223 0
0.926655 -0.0292784 0
0.927988 -0.0296493 0
0.929845 -0.0299318 0
0.932206 -0.0300244 0
0.935072 -0.0300189 0
0.938412 -0.0298249 0
0.942219 -0.0295277 0
0.946453 -0.0290491 0
0.9511 -0.0284667 0
0.956113 -0.0277144 0
0.961472 -0.0268618 0
0.967126 -0.0258546 0
0.973051 -0.0247542 0
0.979194 -0.0235174 0
0.985529 -0.0221973 0
0.992001 -0.0207615 0
0.998584 -0.0192544 0
1.00522 -0.0176538 0
1.01189 -0.0159958 0
1.01854 -0.0142675 0
1.02514 -0.0124965 0
1.03165 -0.0106785 0
1.03803 -0.00883306 0
1.04425 -0.00696374 0
1.05029 -0.00508181 0
1.05609 -0.00319826 0
1.06165 -0.00131621 0
1.06693 0.000546518 0
1.07191 0.00239495 0
1.07657 0.00420473 0
1.08088 0.00598913 0
1.08483 0.00771743 0
1.08841 0.00941127 0
1.09159 0.0110336 0
1.09438 0.0126146 0
1.09676 0.014111 0
1.09873 0.0155612 0
1.10028 0.0169158 0
1.10142 0.0182219 0
1.10214 0.0194234 0
1.10245 0.020576 0
1.10237 0.0216174 0
1.10188 0.0226114 0
1.10102 0.0234895 0
1.09978 0.0243232 0
1.09819 0.0250383 0
1.09625 0.0257135 0
1.09399 0.0262693 0
1.09143 0.0267904 0
1.08858 0.0271931 0
1.08546 0.027567 0
1.0821 0.0278253 0
1.07852 0.028061 0
1.07474 0.0281853 0
1.07077 0.0282934 0
1.06665 0.0282957 0
1.0624 0.0282877 0
1.05803 0.028181 0
1.05357 0.0280697 0
1.04904 0.0278677 0
1.04447 0.0276659 0
1.03986 0.0273826 0
1.03524 0.0271037 0
1.03064 0.0267528 0
1.02606 0.0264096 0
1.02153 0.0260046 0
1.01705 0.0256095 0
1.01265 0.025163 0
1.00834 0.0247275 0
1.00415 0.0242508 0
1.00006 0.0237853 0
0.996109 0.0232886 0
0.992293 0.0228021 0
0.988637 0.022294 0
0.985134 0.021794 0
0.981811 0.0212814 0
0.978657 0.0207738 0
0.975698 0.0202622 0
0.972921 0.0197515 0
0.97035 0.0192447 0
0.96797 0.0187338 0
0.965805 0.0182344 0
0.963836 0.0177252 0
0.962086 0.0172346 0
0.960533 0.0167279 0
0.9592 0.0162466 0
0.958062 0.0157428 0
0.95714 0.0152707 0
0.956407 0.0147695 0
0.955882 0.0143064 0
0.955539 0.0138077 0
0.955391 0.0133531 0
0.955412 0.0128567 0
0.955615 0.0124105 0
0.955971 0.0119169 0
0.956491 0.0114789 0
0.957147 0.0109889 0
0.957946 0.0105598 0
0.958862 0.0100748 0
0.959899 0.00965527 0
0.961032 0.00917737 0
0.962262 0.00876879 0
0.963568 0.00830047 0
0.964945 0.00790458 0
0.966379 0.0074488 0
0.967858 0.00706761 0
0.969373 0.00662764 0
0.970911 0.00626336 0
0.972465 0.00584258 0
0.974019 0.0054975 0
0.975572 0.00509922 0
0.977105 0.00477555 0
0.978622 0.00440286 0
0.9801 0.0041026 0
0.981549 0.00375815 0
0.982946 0.00348294 0
0.984302 0.00316881 0
0.985595 0.00291986 0
0.98684 0.00263743 0
0.988013 0.00241537 0
0.989133 0.00216525 0
0.990178 0.00197014 0
0.991166 0.00175214 0
0.992078 0.00158342 0
0.992933 0.00139656 0
0.993714 0.00125308 0
0.99444 0.00109569 0
0.995096 0.000975813 0
0.995699 0.000845629 0
0.996239 0.000747283 0
0.996731 0.00064161 0
0.997166 0.000562447 0
0.99756 0.000478318 0
0.997903 0.000415832 0
0.998211 0.000350177 0
0.998477 0.000301839 0
0.998713 0.000251637 0
0.998915 0.000215007 0
0.999092 0.000177412 0
0.999242 0.000150231 0
0.999372 0.000122669 0
0.99948 0.000102927 0
0.999574 8.31509e-05 0
0.999651 6.91205e-05 0
0.999717 5.52369e-05 0
0.99977 4.54826e-05 0
0.999815 3.59488e-05 0
0.999852 2.93165e-05 0
0.999882 2.29142e-05 0
0.999906 1.8505e-05 0
0.999926 1.43014e-05 0
0.999942 1.1436e-05 0
0.999955 8.73896e-06 0
0.999965 6.92086e-06 0
0.999973 5.2349e-06 0
0.999979 4.11866e-06 0
0.999984 3.11991e-06 0
0.999988 2.51278e-06 0
0.99999 2.10382e-06 0
0.999602 -5.1444e-05 0
0.999218 -0.000120563 0
0.998827 -0.000208341 0
0.998413 -0.000313717 0
0.997956 -0.00044137 0
0.997447 -0.000589389 0
0.996866 -0.00076657 0
0.996204 -0.000969072 0
0.995442 -0.0012104 0
0.994574 -0.00148369 0
0.993575 -0.00180786 0
0.992444 -0.00217183 0
0.991155 -0.00260064 0
0.989709 -0.00307758 0
0.98808 -0.00363447 0
0.986274 -0.00424731 0
0.984265 -0.00495525 0
0.982068 -0.00572512 0
0.97966 -0.00660364 0
0.977065 -0.00754664 0
0.974264 -0.00860834 0
0.971294 -0.00973185 0
0.968144 -0.0109786 0
0.964862 -0.0122777 0
0.961448 -0.0136972 0
0.957959 -0.0151518 0
0.954407 -0.0167156 0
0.950858 -0.0182894 0
0.947333 -0.0199526 0
0.943901 -0.0215939 0
0.940593 -0.0232973 0
0.937477 -0.0249422 0
0.934589 -0.0266168 0
0.931988 -0.0281943 0
0.929714 -0.0297665 0
0.927814 -0.0312044 0
0.926325 -0.0326022 0
0.92528 -0.0338327 0
0.92471 -0.0349912 0
0.924631 -0.0359556 0
0.925068 -0.036821 0
0.926018 -0.0374728 0
0.9275 -0.0380047 0
0.929494 -0.0383115 0
0.93201 -0.0384839 0
0.935015 -0.0384275 0
0.938511 -0.0382285 0
0.942454 -0.0378042 0
0.946838 -0.0372353 0
0.951613 -0.0364508 0
0.956766 -0.0355252 0
0.96224 -0.0343993 0
0.968019 -0.0331405 0
0.974045 -0.0317011 0
0.980296 -0.0301413 0
0.986713 -0.0284242 0
0.993273 -0.0266024 0
0.999918 -0.0246494 0
1.00662 -0.02261 0
1.01334 -0.0204671 0
1.02003 -0.018258 0
1.02665 -0.015974 0
1.03318 -0.0136447 0
1.03957 -0.0112692 0
1.04579 -0.0088693 0
1.05181 -0.00645141 0
1.0576 -0.00402911 0
1.06312 -0.00161569 0
1.06837 0.000783534 0
1.0733 0.0031489 0
1.0779 0.00548352 0
1.08215 0.00776157 0
1.08604 0.00999481 0
1.08954 0.0121513 0
1.09265 0.0142518 0
1.09536 0.0162581 0
1.09766 0.0181999 0
1.09954 0.0200331 0
1.10101 0.0217963 0
1.10206 0.0234391 0
1.1027 0.0250093 0
1.10293 0.0264503 0
1.10276 0.0278185 0
1.10219 0.0290511 0
1.10125 0.0302132 0
1.09993 0.0312359 0
1.09826 0.0321923 0
1.09625 0.033008 0
1.09392 0.0337629 0
1.09129 0.0343779 0
1.08837 0.034939 0
1.0852 0.0353631 0
1.08178 0.0357408 0
1.07814 0.0359864 0
1.07431 0.0361934 0
1.0703 0.0362748 0
1.06614 0.0363257 0
1.06185 0.036259 0
1.05745 0.0361695 0
1.05297 0.0359719 0
1.04841 0.0357585 0
1.04382 0.0354477 0
1.03919 0.0351275 0
1.03457 0.0347212 0
1.02995 0.0343112 0
1.02536 0.0338267 0
1.02082 0.0333432 0
1.01635 0.0327972 0
1.01195 0.0322557 0
1.00764 0.0316636 0
1.00344 0.0310782 0
0.999367 0.0304538 0
0.995415 0.029837 0
0.991615 0.0291921 0
0.987958 0.0285546 0
0.984474 0.0278993 0
0.98115 0.0272497 0