# vtk DataFile Version 3.0
Flow field at step 1400
ASCII
DATASET STRUCTURED_GRID
DIMENSIONS 200 100 1
POINTS 20000 float
0.005 0.005 0
0.015 0.005 0
0.025 0.005 0
0.035 0.005 0
0.045 0.005 0
0.055 0.005 0
0.065 0.005 0
0.075 0.005 0
0.085 0.005 0
0.095 0.005 0
0.105 0.005 0
0.115 0.005 0
0.125 0.005 0
0.135 0.005 0
0.145 0.005 0
0.155 0.005 0
0.165 0.005 0
0.175 0.005 0
0.185 0.005 0
0.195 0.005 0
0.205 0.005 0
0.215 0.005 0
0.225 0.005 0
0.235 0.005 0
0.245 0.005 0
0.255 0.005 0
0.265 0.005 0
0.275 0.005 0
0.285 0.005 0
0.295 0.005 0
0.305 0.005 0
0.315 0.005 0
0.325 0.005 0
0.335 0.005 0
0.345 0.005 0
0.355 0.005 0
0.365 0.005 0
0.375 0.005 0
0.385 0.005 0
0.395 0.005 0
0.405 0.005 0
0.415 0.005 0
0.425 0.005 0
0.435 0.005 0
0.445 0.005 0
0.455 0.005 0
0.465 0.005 0
0.475 0.005 0
0.485 0.005 0
0.495 0.005 0
0.505 0.005 0
0.515 0.005 0
0.525 0.005 0
0.535 0.005 0
0.545 0.005 0
0.555 0.005 0
0.565 0.005 0
0.575 0.005 0
0.585 0.005 0
0.595 0.005 0
0.605 0.005 0
0.615 0.005 0
0.625 0.005 0
0.635 0.005 0
0.645 0.005 0
0.655 0.005 0
0.665 0.005 0
0.675 0.005 0
0.685 0.005 0
0.695 0.005 0
0.705 0.005 0
0.715 0.005 0
0.725 0.005 0
0.735 0.005 0
0.745 0.005 0
0.755 0.005 0
0.765 0.005 0
0.775 0.005 0
0.785 0.005 0
0.795 0.005 0
0.805 0.005 0
0.815 0.005 0
0.825 0.005 0
0.835 0.005 0
0.845 0.005 0
0.855 0.005 0
0.865 0.005 0
0.875 0.005 0
0.885 0.005 0
0.895 0.005 0
0.905 0.005 0
0.915 0.005 0
0.925 0.005 0
0.935 0.005 0
0.945 0.005 0
0.955 0.005 0
0.965 0.005 0
0.975 0.005 0
0.985 0.005 0
0.995 0.005 0
1.005 0.005 0
1.015 0.005 0
1.025 0.005 0
1.035 0.005 0
1.045 0.005 0
1.055 0.005 0
1.065 0.005 0
1.075 0.005 0
1.085 0.005 0
1.095 0.005 0
1.105 0.005 0
1.115 0.005 0
1.125 0.005 0
1.135 0.005 0
1.145 0.005 0
1.155 0.005 0
1.165 0.005 0
1.175 0.005 0
1.185 0.005 0
1.195 0.005 0
1.205 0.005 0
1.215 0.005 0
1.225 0.005 0
1.235 0.005 0
1.245 0.005 0
1.255 0.005 0
1.265 0.005 0
1.275 0.005 0
1.285 0.005 0
1.295 0.005 0
1.305 0.005 0
1.315 0.005 0
1.325 0.005 0
1.335 0.005 0
1.345 0.005 0
1.355 0.005 0
1.365 0.005 0
1.375 0.005 0
1.385 0.005 0
1.395 0.005 0
1.405 0.005 0
1.415 0.005 0
1.425 0.005 0
1.435 0.005 0
1.445 0.005 0
1.455 0.005 0
1.465 0.005 0
1.475 0.005 0
1.485 0.005 0
1.495 0.005 0
1.505 0.005 0
1.515 0.005 0
1.525 0.005 0
1.535 0.005 0
1.545 0.005 0
1.555 0.005 0
1.565 0.005 0
1.575 0.005 0
1.585 0.005 0
1.595 0.005 0
1.605 0.005 0
1.615 0.005 0
1.625 0.005 0
1.635 0.005 0
1.645 0.005 0
1.655 0.005 0
1.665 0.005 0
1.675 0.005 0
1.685 0.005 0
1.695 0.005 0
1.705 0.005 0
1.715 0.005 0
1.725 0.005 0
1.735 0.005 0
1.745 0.005 0
1.755 0.005 0
1.765 0.005 0
1.775 0.005 0
1.785 0.005 0
1.795 0.005 0
1.805 0.005 0
1.815 0.005 0
1.825 0.005 0
1.835 0.005 0
1.845 0.005 0
1.855 0.005 0
1.865 0.005 0
1.875 0.005 0
1.885 0.005 0
1.895 0.005 0
1.905 0.005 0
1.915 0.005 0
1.925 0.005 0
1.935 0.005 0
1.945 0.005 0
1.955 0.005 0
1.965 0.005 0
1.975 0.005 0
1.985 0.005 0
1.995 0.005 0
0.005 0.015 0
0.015 0.015 0
0.025 0.015 0
0.035 0.015 0
0.045 0.015 0
0.055 0.015 0
0.065 0.015 0
0.075 0.015 0
0.085 0.015 0
0.095 0.015 0
0.105 0.015 0
0.115 0.015 0
0.125 0.015 0
0.135 0.015 0
0.145 0.015 0
0.155 0.015 0
0.165 0.015 0
0.175 0.015 0
0.185 0.015 0
0.195 0.015 0
0.205 0.015 0
0.215 0.015 0
0.225 0.015 0
0.235 0.015 0
0.245 0.015 0
0.255 0.015 0
0.265 0.015 0
0.275 0.015 0
0.285 0.015 0
0.295 0.015 0
0.305 0.015 0
0.315 0.015 0
0.325 0.015 0
0.335 0.015 0
0.345 0.015 0
0.355 0.015 0
0.365 0.015 0
0.375 0.015 0
0.385 0.015 0
0.395 0.015 0
0.405 0.015 0
0.415 0.015 0
0.425 0.015 0
0.435 0.015 0
0.445 0.015 0
0.455 0.015 0
0.465 0.015 0
0.475 0.015 0
0.485 0.015 0
0.495 0.015 0
0.505 0.015 0
0.515 0.015 0
0.525 0.015 0
0.535 0.015 0
0.545 0.015 0
0.555 0.015 0
0.565 0.015 0
0.575 0.015 0
0.585 0.015 0
0.595 0.015 0
0.605 0.015 0
0.615 0.015 0
0.625 0.015 0
0.635 0.015 0
0.645 0.015 0
0.655 0.015 0
0.665 0.015 0
0.675 0.015 0
0.685 0.015 0
0.695 0.015 0
0.705 0.015 0
0.715 0.015 0
0.725 0.015 0
0.735 0.015 0
0.745 0.015 0
0.755 0.015 0
0.765 0.015 0
0.775 0.015 0
0.785 0.015 0
0.795 0.015 0
0.805 0.015 0
0.815 0.015 0
0.825 0.015 0
0.835 0.015 0
0.845 0.015 0
0.855 0.015 0
0.865 0.015 0
0.875 0.015 0
0.885 0.015 0
0.895 0.015 0
0.905 0.015 0
0.915 0.015 0
0.925 0.015 0
0.935 0.015 0
0.945 0.015 0
0.955 0.015 0
0.965 0.015 0
0.975 0.015 0
0.985 0.015 0
0.995 0.015 0
1.005 0.015 0
1.015 0.015 0
1.025 0.015 0
1.035 0.015 0
1.045 0.015 0
1.055 0.015 0
1.065 0.015 0
1.075 0.015 0
1.085 0.015 0
1.095 0.015 0
1.105 0.015 0
1.115 0.015 0
1.125 0.015 0
1.135 0.015 0
1.145 0.015 0
1.155 0.015 0
1.165 0.015 0
1.175 0.015 0
1.185 0.015 0
1.195 0.015 0
1.205 0.015 0
1.215 0.015 0
1.225 0.015 0
1.235 0.015 0
1.245 0.015 0
1.255 0.015 0
1.265 0.015 0
1.275 0.015 0
1.285 0.015 0
1.295 0.015 0
1.305 0.015 0
1.315 0.015 0
1.325 0.015 0
1.335 0.015 0
1.345 0.015 0
1.355 0.015 0
1.365 0.015 0
1.375 0.015 0
1.385 0.015 0
1.395 0.015 0
1.405 0.015 0
1.415 0.015 0
1.425 0.015 0
1.435 0.015 0
1.445 0.015 0
1.455 0.015 0
1.465 0.015 0
1.475 0.015 0
1.485 0.015 0
1.495 0.015 0
1.505 0.015 0
1.515 0.015 0
1.525 0.015 0
1.535 0.015 0
1.545 0.015 0
1.555 0.015 0
1.565 0.015 0
1.575 0.015 0
1.585 0.015 0
1.595 0.015 0
1.605 0.015 0
1.615 0.015 0
1.625 0.015 0
1.635 0.015 0
1.645 0.015 0
1.655 0.015 0
1.665 0.015 0
1.675 0.015 0
1.685 0.015 0
1.695 0.015 0
1.705 0.015 0
1.715 0.015 0
1.725 0.015 0
1.735 0.015 0
1.745 0.015 0
1.755 0.015 0
1.765 0.015 0
1.775 0.015 0
1.785 0.015 0
1.795 0.015 0
1.805 0.015 0
1.815 0.015 0
1.825 0.015 0
1.835 0.015 0
1.845 0.015 0
1.855 0.015 0
1.865 0.015 0
1.875 0.015 0
1.885 0.015 0
1.895 0.015 0
1.905 0.015 0
1.915 0.015 0
1.925 0.015 0
1.935 0.015 0
1.945 0.015 0
1.955 0.015 0
1.965 0.015 0
1.975 0.015 0
1.985 0.015 0
1.995 0.015 0
0.005 0.025 0
0.015 0.025 0
0.025 0.025 0
0.035 0.025 0
0.045 0.025 0
0.055 0.025 0
0.065 0.025 0
0.075 0.025 0
0.085 0.025 0
0.095 0.025 0
0.105 0.025 0
0.115 0.025 0
0.125 0.025 0
0.135 0.025 0
0.145 0.025 0
0.155 0.025 0
0.165 0.025 0
0.175 0.025 0
0.185 0.025 0
0.195 0.025 0
0.205 0.025 0
0.215 0.025 0
0.225 0.025 0
0.235 0.025 0
0.245 0.025 0
0.255 0.025 0
0.265 0.025 0
0.275 0.025 0
0.285 0.025 0
0.295 0.025 0
0.305 0.025 0
0.315 0.025 0
0.325 0.025 0
0.335 0.025 0
0.345 0.025 0
0.355 0.025 0
0.365 0.025 0
0.375 0.025 0
0.385 0.025 0
0.395 0.025 0
0.405 0.025 0
0.415 0.025 0
0.425 0.025 0
0.435 0.025 0
0.445 0.025 0
0.455 0.025 0
0.465 0.025 0
0.475 0.025 0
0.485 0.025 0
0.495 0.025 0
0.505 0.025 0
0.515 0.025 0
0.525 0.025 0
0.535 0.025 0
0.545 0.025 0
0.555 0.025 0
0.565 0.025 0
0.575 0.025 0
0.585 0.025 0
0.595 0.025 0
0.605 0.025 0
0.615 0.025 0
0.625 0.025 0
0.635 0.025 0
0.645 0.025 0
0.655 0.025 0
0.665 0.025 0
0.675 0.025 0
0.685 0.025 0
0.695 0.025 0
0.705 0.025 0
0.715 0.025 0
0.725 0.025 0
0.735 0.025 0
0.745 0.025 0
0.755 0.025 0
0.765 0.025 0
0.775 0.025 0
0.785 0.025 0
0.795 0.025 0
0.805 0.025 0
0.815 0.025 0
0.825 0.025 0
0.835 0.025 0
0.845 0.025 0
0.855 0.025 0
0.865 0.025 0
0.875 0.025 0
0.885 0.025 0
0.895 0.025 0
0.905 0.025 0
0.915 0.025 0
0.925 0.025 0
0.935 0.025 0
0.945 0.025 0
0.955 0.025 0
0.965 0.025 0
0.975 0.025 0
0.985 0.025 0
0.995 0.025 0
1.005 0.025 0
1.015 0.025 0
1.025 0.025 0
1.035 0.025 0
1.045 0.025 0
1.055 0.025 0
1.065 0.025 0
1.075 0.025 0
1.085 0.025 0
1.095 0.025 0
1.105 0.025 0
1.115 0.025 0
1.125 0.025 0
1.135 0.025 0
1.145 0.025 0
1.155 0.025 0
1.165 0.025 0
1.175 0.025 0
1.185 0.025 0
1.195 0.025 0
1.205 0.025 0
1.215 0.025 0
1.225 0.025 0
1.235 0.025 0
1.245 0.025 0
1.255 0.025 0
1.265 0.025 0
1.275 0.025 0
1.285 0.025 0
1.295 0.025 0
1.305 0.025 0
1.315 0.025 0
1.325 0.025 0
1.335 0.025 0
1.345 0.025 0
1.355 0.025 0
1.365 0.025 0
1.375 0.025 0
1.385 0.025 0
1.395 0.025 0
1.405 0.025 0
1.415 0.025 0
1.425 0.025 0
1.435 0.025 0
1.445 0.025 0
1.455 0.025 0
1.465 0.025 0
1.475 0.025 0
1.485 0.025 0
1.495 0.025 0
1.505 0.025 0
1.515 0.025 0
1.525 0.025 0
1.535 0.025 0
1.545 0.025 0
1.555 0.025 0
1.565 0.025 0
1.575 0.025 0
1.585 0.025 0
1.595 0.025 0
1.605 0.025 0
1.615 0.025 0
1.625 0.025 0
1.635 0.025 0
1.645 0.025 0
1.655 0.025 0
1.665 0.025 0
1.675 0.025 0
1.685 0.025 0
1.695 0.025 0
1.705 0.025 0
1.715 0.025 0
1.725 0.025 0
1.735 0.025 0
1.745 0.025 0
1.755 0.025 0
1.765 0.025 0
1.775 0.025 0
1.785 0.025 0
1.795 0.025 0
1.805 0.025 0
1.815 0.025 0
1.825 0.025 0
1.835 0.025 0
1.845 0.025 0
1.855 0.025 0
1.865 0.025 0
1.875 0.025 0
1.885 0.025 0
1.895 0.025 0
1.905 0.025 0
1.915 0.025 0
1.925 0.025 0
1.935 0.025 0
1.945 0.025 0
1.955 0.025 0
1.965 0.025 0
1.975 0.025 0
1.985 0.025 0
1.995 0.025 0
0.005 0.035 0
0.015 0.035 0
0.025 0.035 0
0.035 0.035 0
0.045 0.035 0
0.055 0.035 0
0.065 0.035 0
0.075 0.035 0
0.085 0.035 0
0.095 0.035 0
0.105 0.035 0
0.115 0.035 0
0.125 0.035 0
0.135 0.035 0
0.145 0.035 0
0.155 0.035 0
0.165 0.035 0
0.175 0.035 0
0.185 0.035 0
0.195 0.035 0
0.205 0.035 0
0.215 0.035 0
0.225 0.035 0
0.235 0.035 0
0.245 0.035 0
0.255 0.035 0
0.265 0.035 0
0.275 0.035 0
0.285 0.035 0
0.295 0.035 0
0.305 0.035 0
0.315 0.035 0
0.325 0.035 0
0.335 0.035 0
0.345 0.035 0
0.355 0.035 0
0.365 0.035 0
0.375 0.035 0
0.385 0.035 0
0.395 0.035 0
0.405 0.035 0
0.415 0.035 0
0.425 0.035 0
0.435 0.035 0
0.445 0.035 0
0.455 0.035 0
0.465 0.035 0
0.475 0.035 0
0.485 0.035 0
0.495 0.035 0
0.505 0.035 0
0.515 0.035 0
0.525 0.035 0
0.535 0.035 0
0.545 0.035 0
0.555 0.035 0
0.565 0.035 0
0.575 0.035 0
0.585 0.035 0
0.595 0.035 0
0.605 0.035 0
0.615 0.035 0
0.625 0.035 0
0.635 0.035 0
0.645 0.035 0
0.655 0.035 0
0.665 0.035 0
0.675 0.035 0
0.685 0.035 0
0.695 0.035 0
0.705 0.035 0
0.715 0.035 0
0.725 0.035 0
0.735 0.035 0
0.745 0.035 0
0.755 0.035 0
0.765 0.035 0
0.775 0.035 0
0.785 0.035 0
0.795 0.035 0
0.805 0.035 0
0.815 0.035 0
0.825 0.035 0
0.835 0.035 0
0.845 0.035 0
0.855 0.035 0
0.865 0.035 0
0.875 0.035 0
0.885 0.035 0
0.895 0.035 0
0.905 0.035 0
0.915 0.035 0
0.925 0.035 0
0.935 0.035 0
0.945 0.035 0
0.955 0.035 0
0.965 0.035 0
0.975 0.035 0
0.985 0.035 0
0.995 0.035 0
1.005 0.035 0
1.015 0.035 0
1.025 0.035 0
1.035 0.035 0
1.045 0.035 0
[...]
POINT_DATA 20000
VECTORS velocity float
0.954201 -2.43209e-05 0
0.915564 -5.4605e-05 0
0.883331 -8.9549e-05 0
0.856683 -0.000127698 0
0.834821 -0.000168573 0
0.817003 -0.00021094 0
0.802574 -0.000255055 0
0.790966 -0.000299733 0
0.781699 -0.000345811 0
0.774372 -0.000392025 0
0.768654 -0.000439649 0
0.764275 -0.000487275 0
0.761015 -0.000536496 0
0.758696 -0.000585738 0
0.757176 -0.000636816 0
0.756341 -0.000688004 0
0.756099 -0.00074125 0
0.756377 -0.000794708 0
0.75712 -0.000850385 0
0.758282 -0.00090635 0
0.759827 -0.000964598 0
0.761729 -0.00102316 0
0.763967 -0.00108394 0
0.766525 -0.00114498 0
0.769392 -0.00120806 0
0.772558 -0.00127122 0
0.776018 -0.00133608 0
0.779768 -0.00140075 0
0.783806 -0.00146659 0
0.788131 -0.00153182 0
0.792741 -0.00159754 0
0.797637 -0.00166208 0
0.802819 -0.00172625 0
0.808287 -0.00178853 0
0.814042 -0.0018494 0
0.820083 -0.00190755 0
0.826409 -0.00196312 0
0.833019 -0.00201501 0
0.839909 -0.00206306 0
0.847078 -0.0021064 0
0.854521 -0.00214459 0
0.862232 -0.00217704 0
0.870204 -0.00220304 0
0.87843 -0.00222232 0
0.886901 -0.00223396 0
0.895605 -0.00223802 0
0.904532 -0.0022334 0
0.913667 -0.00222058 0
0.922997 -0.0021983 0
0.932505 -0.00216745 0
0.942175 -0.00212664 0
0.951989 -0.00207726 0
0.961927 -0.00201779 0
0.97197 -0.00195009 0
0.982096 -0.00187254 0
0.992285 -0.00178749 0
1.00251 -0.00169319 0
1.01276 -0.00159249 0
1.023 -0.00148348 0
1.03321 -0.00136949 0
1.04336 -0.00124842 0
1.05344 -0.00112406 0
1.06342 -0.000994057 0
1.07328 -0.000862667 0
1.08299 -0.000727191 0
1.09253 -0.000592352 0
1.10187 -0.000455031 0
1.11101 -0.000320408 0
1.11991 -0.000184865 0
1.12855 -5.40438e-05 0
1.13692 7.62624e-05 0
1.145 0.00019993 0
1.15277 0.000321846 0
1.16021 0.000435377 0
1.1673 0.000546175 0
1.17404 0.000647065 0
1.18041 0.000744544 0
1.18639 0.000830848 0
1.19199 0.000913402 0
1.19717 0.000983796 0
1.20195 0.00105046 0
1.20631 0.00110426 0
1.21026 0.00115471 0
1.21377 0.00119191 0
1.21687 0.00122646 0
1.21954 0.00124764 0
1.22179 0.0012672 0
1.22362 0.00127353 0
1.22505 0.00127952 0
1.22608 0.00127264 0
1.22672 0.00126692 0
1.22698 0.00124884 0
1.22687 0.00123355 0
1.22643 0.00120654 0
1.22565 0.00118399 0
1.22456 0.00115043 0
1.22318 0.00112299 0
1.22153 0.00108524 0
1.21963 0.00105517 0
1.2175 0.00101544 0
1.21517 0.000984792 0
1.21267 0.000945082 0
1.21 0.000915605 0
1.2072 0.000877568 0
1.20428 0.00085067 0
1.20127 0.00081561 0
1.19819 0.000792314 0
1.19505 0.000761163 0
1.19188 0.000742117 0
1.18868 0.000715451 0
1.18549 0.000700959 0
1.1823 0.000679036 0
1.17914 0.000669103 0
1.176 0.000651916 0
1.17291 0.00064631 0
1.16987 0.000633644 0
1.16689 0.000631956 0
1.16397 0.000623451 0
1.16112 0.000625154 0
1.15833 0.000620358 0
1.15562 0.000624864 0
1.15298 0.000623279 0
1.15042 0.000629981 0
1.14792 0.000631103 0
1.1455 0.000639411 0
1.14314 0.00064276 0
1.14086 0.000652126 0
1.13864 0.000657263 0
1.13647 0.000667197 0
1.13437 0.000673736 0
1.13233 0.000683817 0
1.13033 0.000691432 0
1.12838 0.00070131 0
1.12648 0.000709732 0
1.12461 0.000719129 0
1.12278 0.000728146 0
1.12099 0.000736852 0
1.11922 0.0007463 0
1.11748 0.000754163 0
1.11576 0.000763922 0
1.11407 0.000770847 0
1.11238 0.00078083 0
1.11071 0.000786768 0
1.10905 0.000796915 0
1.1074 0.000801855 0
1.10576 0.000812126 0
1.10411 0.000816088 0
1.10247 0.000826454 0
1.10083 0.000829484 0
1.09919 0.00083992 0
1.09754 0.000842081 0
1.09588 0.000852564 0
1.09422 0.00085393 0
1.09255 0.000864432 0
1.09088 0.000865085 0
1.08919 0.000875569 0
1.08749 0.000875593 0
1.08578 0.000886011 0
1.08406 0.000885485 0
1.08232 0.000895777 0
1.08058 0.000894776 0
1.07882 0.000904866 0
1.07705 0.000903453 0
1.07527 0.00091325 0
1.07347 0.000911475 0
1.07167 0.000920874 0
1.06985 0.000918768 0
1.06803 0.000927647 0
1.06619 0.000925225 0
1.06434 0.000933447 0
1.06249 0.000930699 0
1.06063 0.000938111 0
1.05877 0.000935005 0
1.0569 0.000941442 0
1.05503 0.000937919 0
1.05317 0.000943198 0
1.0513 0.000939173 0
1.04944 0.000943099 0
1.04758 0.000938458 0
1.04573 0.000940819 0
1.04389 0.000935421 0
1.04207 0.000935989 0
1.04026 0.000929668 0
1.03848 0.0009282 0
1.03672 0.000920764 0
1.03498 0.000917 0
1.03328 0.000908242 0
1.03161 0.000901917 0
1.02999 0.000891627 0
1.0284 0.000882494 0
1.02687 0.000870493 0
1.02539 0.000858396 0
1.02398 0.000844622 0
1.02263 0.000829674 0
1.02135 0.000814395 0
1.02014 0.000797426 0
1.01903 0.000781813 0
1.01802 0.000765444 0
1.01715 0.000753023 0
1.01654 0.000744137 0
0.954185 -7.28661e-05 0
0.915536 -0.000163807 0
0.883294 -0.000268285 0
0.856639 -0.000383067 0
0.834771 -0.000505034 0
0.816949 -0.000632762 0
0.802516 -0.000764137 0
0.790905 -0.0008991 0
0.781636 -0.00103607 0
0.774307 -0.00117593 0
0.768587 -0.00131728 0
0.764206 -0.00146162 0
0.760944 -0.00160757 0
0.758623 -0.00175696 0
0.7571 -0.00190833 0
0.756262 -0.00206372 0
0.756017 -0.00222151 0
0.756293 -0.00238381 0
0.757033 -0.00254887 0
0.758191 -0.00271875 0
0.759734 -0.00289155 0
0.761633 -0.00306921 0
0.763868 -0.00324972 0
0.766423 -0.00343479 0
0.769287 -0.00362229 0
0.772451 -0.00381368 0
0.77591 -0.00400671 0
0.779659 -0.00420247 0
0.783696 -0.00439867 0
0.788019 -0.00459598 0
0.79263 -0.00479206 0
0.797527 -0.00498712 0
0.80271 -0.0051788 0
0.808181 -0.00536686 0
0.813939 -0.00554893 0
0.819984 -0.00572433 0
0.826315 -0.00589076 0
0.832931 -0.00604712 0
0.839829 -0.00619123 0
0.847006 -0.00632164 0
0.854458 -0.0064364 0
0.862178 -0.00653378 0
0.870162 -0.00661219 0
0.878399 -0.0066697 0
0.886882 -0.00670517 0
0.8956 -0.00671664 0
0.90454 -0.00670354 0
0.913689 -0.00666395 0
0.923033 -0.00659798 0
0.932556 -0.00650388 0
0.94224 -0.00638253 0
0.952067 -0.00623242 0
0.962019 -0.00605524 0
0.972075 -0.00584976 0
0.982213 -0.00561854 0
0.992412 -0.00536061 0
1.00265 -0.0050794 0
1.0129 -0.00477415 0
1.02315 -0.00444911 0
1.03337 -0.00410365 0
1.04353 -0.00374278 0
1.05361 -0.00336589 0
1.06359 -0.00297866 0
1.07344 -0.00258034 0
1.08315 -0.0021772 0
1.09268 -0.0017682 0
1.10202 -0.0013601 0
1.11115 -0.000951397 0
1.12004 -0.000549276 0
1.12867 -0.000151592 0
1.13703 0.000234114 0
1.14509 0.000610776 0
1.15284 0.00097055 0
1.16026 0.00131731 0
1.16734 0.00164292 0
1.17406 0.00195234 0
1.1804 0.00223714 0
1.18636 0.00250347 0
1.19193 0.00274261 0
1.1971 0.00296198 0
1.20185 0.00315251 0
1.20619 0.00332299 0
1.21011 0.00346393 0
1.21361 0.00358553 0
1.21668 0.00367781 0
1.21932 0.00375239 0
1.22155 0.00379873 0
1.22337 0.00382983 0
1.22477 0.0038345 0
1.22578 0.00382709 0
1.2264 0.00379562 0
1.22664 0.00375575 0
1.22653 0.00369463 0
1.22606 0.00362906 0
1.22527 0.00354527 0
1.22417 0.00346109 0
1.22278 0.00336177 0
1.22111 0.00326597 0
1.21921 0.00315796 0
1.21707 0.0030571 0
1.21474 0.00294666 0
1.21222 0.00284652 0
1.20955 0.00273905 0
1.20674 0.00264444 0
1.20382 0.0025443 0
1.2008 0.00245894 0
1.19771 0.00236937 0
1.19458 0.00229585 0
1.1914 0.00221898 0
1.1882 0.0021588 0
1.18501 0.00209576 0
1.18182 0.00204947 0
1.17865 0.00200049 0
1.17552 0.00196784 0
1.17243 0.00193246 0
1.16938 0.00191257 0
1.1664 0.00188978 0
1.16348 0.00188136 0
1.16062 0.00186982 0
1.15784 0.00187128 0
1.15512 0.00186945 0
1.15248 0.0018791 0
1.14991 0.00188536 0
1.14742 0.00190149 0
1.14499 0.00191428 0
1.14264 0.00193527 0
1.14035 0.00195311 0
1.13812 0.0019775 0
1.13596 0.00199907 0
1.13386 0.00202556 0
1.13181 0.00204974 0
1.12981 0.00207723 0
1.12786 0.00210308 0
1.12595 0.00213068 0
1.12409 0.00215745 0
1.12226 0.00218446 0
1.12046 0.00221155 0
1.1187 0.00223745 0
1.11696 0.00226444 0
1.11524 0.00228887 0
1.11354 0.00231546 0
1.11185 0.00233818 0
1.11019 0.00236417 0
1.10853 0.00238507 0
1.10688 0.00241035 0
1.10523 0.0024294 0
1.10359 0.00245394 0
1.10195 0.00247117 0
1.10031 0.00249494 0
1.09866 0.00251044 0
1.09702 0.00253348 0
1.09536 0.00254736 0
1.0937 0.00256968 0
1.09204 0.00258208 0
1.09036 0.00260369 0
1.08868 0.00261473 0
1.08698 0.00263564 0
1.08527 0.00264544 0
1.08355 0.00266561 0
1.08182 0.00267428 0
1.08008 0.00269365 0
1.07833 0.00270123 0
1.07656 0.00271971 0
1.07478 0.00272622 0
1.07299 0.00274365 0
1.07119 0.00274909 0
1.06938 0.00276528 0
1.06755 0.00276955 0
1.06572 0.00278425 0
1.06388 0.00278723 0
1.06203 0.00280015 0
1.06018 0.00280165 0
1.05832 0.00281243 0
1.05646 0.00281218 0
1.0546 0.00282042 0
1.05273 0.00281811 0
1.05087 0.00282334 0
1.04901 0.00281856 0
1.04716 0.00282027 0
1.04532 0.00281257 0
1.04348 0.00281016 0
1.04167 0.002799 0
1.03987 0.00279185 0
1.03809 0.00277663 0
1.03633 0.00276404 0
1.0346 0.00274409 0
1.0329 0.00272533 0
1.03124 0.00269997 0
1.02962 0.0026743 0
1.02804 0.00264288 0
1.02652 0.0026097 0
1.02504 0.0025718 0
1.02363 0.00253093 0
1.02228 0.00248677 0
1.02101 0.00243926 0
1.01981 0.00239091 0
1.0187 0.00234099 0
1.01769 0.00229521 0
1.01683 0.00225501 0
1.01622 0.00223029 0
0.954154 -0.000121309 0
0.91548 -0.000272562 0
0.883219 -0.000446625 0
0.85655 -0.000637371 0
0.834671 -0.000840723 0
0.816841 -0.00105281 0
0.802401 -0.00127203 0
0.790785 -0.00149597 0
0.781511 -0.00172472 0
0.774177 -0.00195664 0
0.768453 -0.0021929 0
0.764068 -0.00243217 0
0.760801 -0.00267626 0
0.758475 -0.00292388 0
0.756948 -0.00317718 0
0.756104 -0.00343477 0
0.755854 -0.0036989 0
0.756124 -0.00396805 0
0.756858 -0.00424442 0
0.75801 -0.00452627 0
0.759547 -0.00481566 0
0.76144 -0.00511062 0
0.76367 -0.00541294 0
0.766219 -0.00572042 0
0.769078 -0.00603448 0
0.772238 -0.00635269 0
0.775693 -0.006676 0
0.779438 -0.00700176 0
0.783473 -0.00733039 0
0.787796 -0.00765899 0
0.792407 -0.00798739 0
0.797306 -0.00831251 0
0.802492 -0.00863354 0
0.807968 -0.00894722 0
0.813732 -0.00925214 0
0.819786 -0.00954493 0
0.826127 -0.0098236 0
0.832755 -0.0100848 0
0.839667 -0.010326 0
0.84686 -0.010544 0
0.85433 -0.010736 0
0.862071 -0.0108989 0
0.870076 -0.0110298 0
0.878337 -0.0111262 0
0.886845 -0.0111851 0
0.895589 -0.0112045 0
0.904556 -0.0111818 0
0.913733 -0.011116 0
0.923105 -0.0110045 0
0.932656 -0.0108476 0
0.942369 -0.0106432 0
0.952224 -0.0103927 0
0.962202 -0.0100947 0
0.972283 -0.00975165 0
0.982446 -0.00936306 0
0.992667 -0.00893256 0
1.00292 -0.00846021 0
1.0132 -0.0079509 0
1.02346 -0.00740518 0
1.03368 -0.00682906 0
1.04385 -0.00622344 0
1.05394 -0.00559528 0
1.06392 -0.00494565 0
1.07377 -0.00428228 0
1.08347 -0.00360616 0
1.09299 -0.00292564 0
1.10232 -0.00224134 0
1.11142 -0.00156208 0
1.12029 -0.000887863 0
1.1289 -0.000227796 0
1.13723 0.000418939 0
1.14526 0.00104309 0
1.15298 0.00164653 0
1.16036 0.00221994 0
1.1674 0.00276645 0
1.17408 0.00327673 0
1.18038 0.00375535 0
1.1863 0.00419298 0
1.19182 0.00459575 0
1.19694 0.00495432 0
1.20165 0.00527647 0
1.20594 0.00555284 0
1.20982 0.0057929 0
1.21326 0.00598716 0
1.21629 0.00614681 0
1.21889 0.00626214 0
1.22108 0.00634603 0
1.22285 0.00638839 0
1.22422 0.00640372 0
1.22518 0.00638143 0
1.22577 0.00633751 0
1.22598 0.0062607 0
1.22583 0.00616831 0
1.22533 0.00604828 0
1.22451 0.00591906 0
1.22338 0.00576763 0
1.22197 0.00561336 0
1.22028 0.0054422 0
1.21836 0.00527421 0
1.2162 0.00509425 0
1.21385 0.00492284 0
1.21132 0.00474375 0
1.20864 0.00457773 0
1.20582 0.00440758 0
1.20289 0.00425406 0
1.19986 0.0040991 0
1.19677 0.00396331 0
1.19362 0.00382793 0
1.19044 0.00371326 0
1.18724 0.00360009 0
1.18404 0.00350822 0
1.18085 0.0034183 0
1.17768 0.00334948 0
1.17454 0.00328253 0
1.17145 0.00323581 0
1.1684 0.00319054 0
1.16541 0.00316413 0
1.16249 0.00313852 0
1.15963 0.00313002 0
1.15684 0.0031216 0
1.15412 0.00312832 0
1.15148 0.00313443 0
1.1489 0.00315355 0
1.1464 0.0031715 0
1.14397 0.0032003 0
1.14162 0.00322753 0
1.13932 0.00326346 0
1.1371 0.00329763 0
1.13493 0.00333842 0
1.13282 0.00337749 0
1.13077 0.00342118 0
1.12877 0.0034634 0
1.12682 0.00350836 0
1.12491 0.00355233 0
1.12304 0.00359726 0
1.12121 0.00364184 0
1.11941 0.00368574 0
1.11764 0.00373011 0
1.1159 0.00377225 0
1.11418 0.00381579 0
1.11248 0.00385569 0
1.1108 0.00389801 0
1.10913 0.00393536 0
1.10747 0.00397622 0
1.10582 0.0040109 0
1.10418 0.00405019 0
1.10253 0.00408218 0
1.1009 0.00411988 0
1.09926 0.00414928 0
1.09762 0.00418542 0
1.09597 0.00421236 0
1.09432 0.00424701 0
1.09267 0.00427166 0
1.091 0.00430489 0
1.08933 0.00432742 0
1.08765 0.00435928 0
1.08596 0.00437987 0
1.08426 0.00441038 0
1.08254 0.00442915 0
1.08082 0.00445828 0
1.07908 0.00447532 0
1.07734 0.00450298 0
1.07558 0.0045183 0
1.07381 0.00454433 0
1.07202 0.00455789 0
1.07023 0.00458205 0
1.06842 0.00459372 0
1.06661 0.0046157 0
1.06479 0.00462525 0
1.06296 0.00464463 0
1.06112 0.00465176 0
1.05927 0.00466805 0
1.05742 0.00467233 0
1.05557 0.00468494 0
1.05372 0.00468585 0
1.05186 0.00469409 0
1.05001 0.00469101 0
1.04816 0.00469409 0
1.04632 0.00468626 0
1.04449 0.0046833 0
1.04267 0.00466987 0
1.04086 0.00465988 0
1.03907 0.00463987 0
1.0373 0.00462176 0
1.03556 0.0045941 0
1.03384 0.0045667 0
1.03215 0.00453025 0
1.0305 0.00449233 0
1.02889 0.00444594 0
1.02732 0.00439637 0
1.0258 0.00433908 0
1.02434 0.00427712 0
1.02294 0.00420864 0
1.0216 0.00413475 0
1.02033 0.00405665 0
1.01914 0.00397455 0
1.01804 0.00389341 0
1.01704 0.00381508 0
1.01618 0.00375008 0
1.01558 0.0037077 0
0.954107 -0.000169455 0
0.915397 -0.00038085 0
0.883108 -0.000623845 0
0.856418 -0.000890545 0
0.834522 -0.00117427 0
0.816679 -0.00147096 0
0.80223 -0.00177668 0
0.790605 -0.00209012 0
0.781324 -0.00240902 0
0.773984 -0.00273384 0
0.768253 -0.00306315 0
0.763861 -0.00339848 0
0.760587 -0.00373871 0
0.758254 -0.00408595 0
0.756719 -0.0044391 0
0.755868 -0.00480051 0
0.755609 -0.00516893 0
0.75587 -0.00554674 0
0.756595 -0.00593244 0
0.757739 -0.00632826 0
0.759266 -0.00673241 0
0.761151 -0.0071468 0
0.763371 -0.00756934 0
0.765913 -0.00800149 0
0.768764 -0.0084408 0
0.771917 -0.00888819 0
0.775366 -0.00934084 0
0.779107 -0.00979901 0
0.783139 -0.0102595 0
0.78746 -0.0107218 0
0.792071 -0.0111824 0
0.796972 -0.0116399 0
0.802164 -0.0120905 0
0.807646 -0.0125321 0
0.81342 -0.0129604 0
0.819486 -0.0133727 0
0.825843 -0.0137644 0
0.832489 -0.0141322 0
0.839422 -0.0144714 0
0.84664 -0.0147784 0
0.854137 -0.0150485 0
0.861908 -0.0152777 0
0.869945 -0.015462 0
0.878242 -0.0155973 0
0.886787 -0.0156802 0
0.89557 -0.0157068 0
0.904578 -0.0156749 0
0.913797 -0.015581 0
0.923211 -0.015424 0
0.932805 -0.0152015 0
0.94256 -0.0149137 0
0.952456 -0.0145591 0
0.962475 -0.0141395 0
0.972594 -0.0136545 0
0.982791 -0.0131076 0
0.993045 -0.0124993 0
1.00333 -0.0118349 0
1.01363 -0.0111157 0
1.02391 -0.0103486 0
1.03415 -0.00953568 0
1.04433 -0.00868498 0
1.05442 -0.00779923 0
1.0644 -0.00688753 0
1.07425 -0.00595278 0
1.08394 -0.00500487 0
1.09345 -0.00404659 0
1.10275 -0.00308836 0
1.11183 -0.00213246 0
1.12067 -0.00118963 0
1.12924 -0.000261316 0
1.13752 0.000641672 0
1.14551 0.00151902 0
1.15317 0.00236 0
1.1605 0.00316572 0
1.16748 0.00392567 0
1.1741 0.00464257 0
1.18034 0.00530624 0
1.18619 0.0059212 0
1.19165 0.00647761 0
1.1967 0.00698191 0
1.20134 0.00742458 0
1.20556 0.0078141 0
1.20936 0.00814115 0
1.21274 0.00841626 0
1.21569 0.00863027 0
1.21823 0.00879567 0
1.22035 0.00890329 0
1.22206 0.00896753 0
1.22336 0.00897901 0
1.22428 0.00895387 0
1.2248 0.00888231 0
1.22496 0.00878203 0
1.22476 0.00864259 0
1.22422 0.00848299 0
1.22336 0.00829197 0
1.22219 0.00808953 0
1.22074 0.00786341 0
1.21903 0.00763434 0
1.21707 0.00738891 0
1.21489 0.00714832 0
1.21252 0.00689795 0
1.20997 0.00665917 0
1.20726 0.00641617 0
1.20443 0.00619028 0
1.20148 0.00596458 0
1.19845 0.00576011 0
1.19535 0.00555901 0
1.19219 0.0053819 0
1.189 0.00521021 0
1.18579 0.00506394 0
1.18259 0.00492409 0
1.17939 0.00480996 0
1.17621 0.00470239 0
1.17307 0.00461985 0
1.16997 0.00454339 0
1.16692 0.0044905 0
1.16393 0.00444276 0
1.16099 0.00441659 0
1.15813 0.00439439 0
1.15534 0.00439138 0
1.15261 0.00439111 0
1.14996 0.00440744 0
1.14739 0.00442533 0
1.14488 0.00445714 0
1.14245 0.00448951 0
1.14008 0.00453316 0
1.13778 0.00457659 0
1.13555 0.00462873 0
1.13338 0.00468017 0
1.13127 0.00473788 0
1.12921 0.00479468 0
1.12721 0.00485548 0
1.12525 0.00491544 0
1.12334 0.00497731 0
1.12147 0.00503867 0
1.11963 0.00510003 0
1.11783 0.00516143 0
1.11606 0.00522107 0
1.11432 0.00528152 0
1.11259 0.00533861 0
1.1109 0.0053974 0
1.10921 0.0054514 0
1.10754 0.00550811 0
1.10588 0.00555872 0
1.10424 0.00561313 0
1.10259 0.00566024 0
1.10096 0.00571226 0
1.09932 0.00575593 0
1.09768 0.00580557 0
1.09605 0.00584594 0
1.09441 0.00589331 0
1.09276 0.00593056 0
1.09111 0.00597577 0
1.08945 0.00601014 0
1.08779 0.00605329 0
1.08612 0.00608498 0
1.08443 0.00612616 0
1.08274 0.00615536 0
1.08104 0.00619458 0
1.07932 0.0062214 0
1.07759 0.0062586 0
1.07585 0.00628308 0
1.07411 0.00631812 0
1.07234 0.00634022 0
1.07057 0.00637284 0
1.06879 0.00639241 0
1.067 0.00642225 0
1.0652 0.00643901 0
1.06339 0.00646559 0
1.06157 0.00647914 0
1.05975 0.00650186 0
1.05791 0.00651165 0
1.05608 0.00652977 0
1.05424 0.00653513 0
1.0524 0.00654778 0
1.05056 0.00654789 0
1.04873 0.00655406 0
1.04689 0.00654793 0
1.04507 0.00654647 0
1.04325 0.00653296 0
1.04145 0.00652258 0
1.03965 0.00650041 0
1.03788 0.00647966 0
1.03613 0.00644738 0
1.0344 0.0064147 0
1.03269 0.00637075 0
1.03102 0.00632446 0
1.02939 0.0062672 0
1.02779 0.00620564 0
1.02624 0.00613354 0
1.02474 0.00605532 0
1.02329 0.00596738 0
1.0219 0.0058721 0
1.02057 0.00576891 0
1.01932 0.00565894 0
1.01815 0.00554544 0
1.01705 0.00543037 0
1.01607 0.0053227 0
1.01522 0.00523024 0
1.01462 0.0051721 0
0.954045 -0.000217295 0
0.915286 -0.00048823 0
0.88296 -0.000799894 0
0.856241 -0.00114155 0
0.834324 -0.00150556 0
0.816464 -0.00188549 0
0.802001 -0.00227788 0
0.790366 -0.00267916 0
0.781075 -0.00308868 0
0.773726 -0.00350449 0
0.767986 -0.00392763 0
0.763585 -0.00435694 0
0.760303 -0.0047944 0
0.75796 -0.0052391 0
0.756415 -0.00569346 0
0.755552 -0.00615653 0
0.755282 -0.00663086 0
0.755532 -0.00711527 0
0.756245 -0.00761217 0
0.757376 -0.00812007 0
0.758891 -0.00864108 0
0.760764 -0.00917329 0
0.762973 -0.00971834 0
0.765503 -0.0102739 0
0.768344 -0.0108409 0
0.771487 -0.0114166 0
0.774928 -0.0120013 0
0.778663 -0.0125914 0
0.78269 -0.0131866 0
0.787009 -0.0137827 0
0.791621 -0.0143783 0
0.796524 -0.0149688 0
0.801722 -0.0155518 0
0.807214 -0.0161222 0
0.813001 -0.0166767 0
0.819083 -0.0172096 0
0.82546 -0.0177169 0
0.83213 -0.0181927 0
0.839092 -0.0186321 0
0.846341 -0.0190293 0
0.853875 -0.0193791 0
0.861685 -0.0196759 0
0.869767 -0.0199142 0
0.87811 -0.0200893 0
0.886705 -0.0201958 0
0.89554 -0.02023 0
0.904603 -0.0201873 0
0.913877 -0.0200652 0
0.923349 -0.01986 0
0.932999 -0.019571 0
0.94281 -0.0191959 0
0.952762 -0.0187357 0
0.962833 -0.0181895 0
0.973003 -0.0175604 0
0.983248 -0.0168492 0
0.993544 -0.0160609 0
1.00387 -0.0151975 0
1.0142 -0.0142663 0
1.02451 -0.0132704 0
1.03477 -0.0122187 0
1.04496 -0.0111153 0
1.05506 -0.00997066 0
1.06504 -0.00878937 0
1.07488 -0.00758282 0
1.08455 -0.00635588 0
1.09404 -0.00512063 0
1.10331 -0.00388162 0
1.11236 -0.00265131 0
1.12115 -0.0014335 0
1.12967 -0.000240711 0
1.1379 0.000924403 0
1.14582 0.00204953 0
1.15341 0.00313353 0
1.16067 0.0041645 0
1.16757 0.0051431 0
1.1741 0.006058 0
1.18026 0.0069119 0
1.18602 0.00769413 0
1.19138 0.00840959 0
1.19634 0.00904827 0
1.20089 0.00961738 0
1.20501 0.0101076 0
1.20872 0.0105284 0
1.21201 0.0108709 0
1.21487 0.0111471 0
1.21732 0.0113484 0
1.21936 0.0114889 0
1.22098 0.0115602 0
1.2222 0.0115784 0
1.22304 0.0115351 0
1.22349 0.0114481 0
1.22358 0.0113085 0
1.22332 0.0111359 0
1.22272 0.0109205 0
1.2218 0.010683 0
1.22058 0.010413 0
1.21908 0.0101317 0
1.21733 0.00982771 0
1.21533 0.00952281 0
1.21312 0.00920413 0
1.21072 0.00889374 0
1.20814 0.0085774 0
1.20541 0.00827705 0
1.20256 0.00797716 0
1.1996 0.00769929 0
1.19655 0.00742672 0
1.19343 0.00718047 0
1.19026 0.00694282 0
1.18706 0.00673409 0
1.18385 0.00653584 0
1.18063 0.00636757 0
1.17742 0.00621043 0
1.17424 0.00608302 0
1.17109 0.0059664 0
1.16798 0.0058782 0
1.16493 0.00579975 0
1.16193 0.00574758 0
1.15899 0.00570369 0
1.15612 0.0056834 0
1.15332 0.00566967 0
1.15059 0.00567653 0
1.14794 0.00568823 0
1.14535 0.00571736 0
1.14284 0.00574971 0
1.1404 0.00579632 0
1.13803 0.00584479 0
1.13572 0.00590445 0