# vtk DataFile Version 3.0
Flow field at step 1900
ASCII
DATASET STRUCTURED_GRID
DIMENSIONS 200 100 1
POINTS 20000 float
0.005 0.005 0
0.015 0.005 0
0.025 0.005 0
0.035 0.005 0
0.045 0.005 0
0.055 0.005 0
0.065 0.005 0
0.075 0.005 0
0.085 0.005 0
0.095 0.005 0
0.105 0.005 0
0.115 0.005 0
0.125 0.005 0
0.135 0.005 0
0.145 0.005 0
0.155 0.005 0
0.165 0.005 0
0.175 0.005 0
0.185 0.005 0
0.195 0.005 0
0.205 0.005 0
0.215 0.005 0
0.225 0.005 0
0.235 0.005 0
0.245 0.005 0
0.255 0.005 0
0.265 0.005 0
0.275 0.005 0
0.285 0.005 0
0.295 0.005 0
0.305 0.005 0
0.315 0.005 0
0.325 0.005 0
0.335 0.005 0
0.345 0.005 0
0.355 0.005 0
0.365 0.005 0
0.375 0.005 0
0.385 0.005 0
0.395 0.005 0
0.405 0.005 0
0.415 0.005 0
0.425 0.005 0
0.435 0.005 0
0.445 0.005 0
0.455 0.005 0
0.465 0.005 0
0.475 0.005 0
0.485 0.005 0
0.495 0.005 0
0.505 0.005 0
0.515 0.005 0
0.525 0.005 0
0.535 0.005 0
0.545 0.005 0
0.555 0.005 0
0.565 0.005 0
0.575 0.005 0
0.585 0.005 0
0.595 0.005 0
0.605 0.005 0
0.615 0.005 0
0.625 0.005 0
0.635 0.005 0
0.645 0.005 0
0.655 0.005 0
0.665 0.005 0
0.675 0.005 0
0.685 0.005 0
0.695 0.005 0
0.705 0.005 0
0.715 0.005 0
0.725 0.005 0
0.735 0.005 0
0.745 0.005 0
0.755 0.005 0
0.765 0.005 0
0.775 0.005 0
0.785 0.005 0
0.795 0.005 0
0.805 0.005 0
0.815 0.005 0
0.825 0.005 0
0.835 0.005 0
0.845 0.005 0
0.855 0.005 0
0.865 0.005 0
0.875 0.005 0
0.885 0.005 0
0.895 0.005 0
0.905 0.005 0
0.915 0.005 0
0.925 0.005 0
0.935 0.005 0
0.945 0.005 0
0.955 0.005 0
0.965 0.005 0
0.975 0.005 0
0.985 0.005 0
0.995 0.005 0
1.005 0.005 0
1.015 0.005 0
1.025 0.005 0
1.035 0.005 0
1.045 0.005 0
1.055 0.005 0
1.065 0.005 0
1.075 0.005 0
1.085 0.005 0
1.095 0.005 0
1.105 0.005 0
1.115 0.005 0
1.125 0.005 0
1.135 0.005 0
1.145 0.005 0
1.155 0.005 0
1.165 0.005 0
1.175 0.005 0
1.185 0.005 0
1.195 0.005 0
1.205 0.005 0
1.215 0.005 0
1.225 0.005 0
1.235 0.005 0
1.245 0.005 0
1.255 0.005 0
1.265 0.005 0
1.275 0.005 0
1.285 0.005 0
1.295 0.005 0
1.305 0.005 0
1.315 0.005 0
1.325 0.005 0
1.335 0.005 0
1.345 0.005 0
1.355 0.005 0
1.365 0.005 0
1.375 0.005 0
1.385 0.005 0
1.395 0.005 0
1.405 0.005 0
1.415 0.005 0
1.425 0.005 0
1.435 0.005 0
1.445 0.005 0
1.455 0.005 0
1.465 0.005 0
1.475 0.005 0
1.485 0.005 0
1.495 0.005 0
1.505 0.005 0
1.515 0.005 0
1.525 0.005 0
1.535 0.005 0
1.545 0.005 0
1.555 0.005 0
1.565 0.005 0
1.575 0.005 0
1.585 0.005 0
1.595 0.005 0
1.605 0.005 0
1.615 0.005 0
1.625 0.005 0
1.635 0.005 0
1.645 0.005 0
1.655 0.005 0
1.665 0.005 0
1.675 0.005 0
1.685 0.005 0
1.695 0.005 0
1.705 0.005 0
1.715 0.005 0
1.725 0.005 0
1.735 0.005 0
1.745 0.005 0
1.755 0.005 0
1.765 0.005 0
1.775 0.005 0
1.785 0.005 0
1.795 0.005 0
1.805 0.005 0
1.815 0.005 0
1.825 0.005 0
1.835 0.005 0
1.845 0.005 0
1.855 0.005 0
1.865 0.005 0
1.875 0.005 0
1.885 0.005 0
1.895 0.005 0
1.905 0.005 0
1.915 0.005 0
1.925 0.005 0
1.935 0.005 0
1.945 0.005 0
1.955 0.005 0
1.965 0.005 0
1.975 0.005 0
1.985 0.005 0
1.995 0.005 0
0.005 0.015 0
0.015 0.015 0
0.025 0.015 0
0.035 0.015 0
0.045 0.015 0
0.055 0.015 0
0.065 0.015 0
0.075 0.015 0
0.085 0.015 0
0.095 0.015 0
0.105 0.015 0
0.115 0.015 0
0.125 0.015 0
0.135 0.015 0
0.145 0.015 0
0.155 0.015 0
0.165 0.015 0
0.175 0.015 0
0.185 0.015 0
0.195 0.015 0
0.205 0.015 0
0.215 0.015 0
0.225 0.015 0
0.235 0.015 0
0.245 0.015 0
0.255 0.015 0
0.265 0.015 0
0.275 0.015 0
0.285 0.015 0
0.295 0.015 0
0.305 0.015 0
0.315 0.015 0
0.325 0.015 0
0.335 0.015 0
0.345 0.015 0
0.355 0.015 0
0.365 0.015 0
0.375 0.015 0
0.385 0.015 0
0.395 0.015 0
0.405 0.015 0
0.415 0.015 0
0.425 0.015 0
0.435 0.015 0
0.445 0.015 0
0.455 0.015 0
0.465 0.015 0
0.475 0.015 0
0.485 0.015 0
0.495 0.015 0
0.505 0.015 0
0.515 0.015 0
0.525 0.015 0
0.535 0.015 0
0.545 0.015 0
0.555 0.015 0
0.565 0.015 0
0.575 0.015 0
0.585 0.015 0
0.595 0.015 0
0.605 0.015 0
0.615 0.015 0
0.625 0.015 0
0.635 0.015 0
0.645 0.015 0
0.655 0.015 0
0.665 0.015 0
0.675 0.015 0
0.685 0.015 0
0.695 0.015 0
0.705 0.015 0
0.715 0.015 0
0.725 0.015 0
0.735 0.015 0
0.745 0.015 0
0.755 0.015 0
0.765 0.015 0
0.775 0.015 0
0.785 0.015 0
0.795 0.015 0
0.805 0.015 0
0.815 0.015 0
0.825 0.015 0
0.835 0.015 0
0.845 0.015 0
0.855 0.015 0
0.865 0.015 0
0.875 0.015 0
0.885 0.015 0
0.895 0.015 0
0.905 0.015 0
0.915 0.015 0
0.925 0.015 0
0.935 0.015 0
0.945 0.015 0
0.955 0.015 0
0.965 0.015 0
0.975 0.015 0
0.985 0.015 0
0.995 0.015 0
1.005 0.015 0
1.015 0.015 0
1.025 0.015 0
1.035 0.015 0
1.045 0.015 0
1.055 0.015 0
1.065 0.015 0
1.075 0.015 0
1.085 0.015 0
1.095 0.015 0
1.105 0.015 0
1.115 0.015 0
1.125 0.015 0
1.135 0.015 0
1.145 0.015 0
1.155 0.015 0
1.165 0.015 0
1.175 0.015 0
1.185 0.015 0
1.195 0.015 0
1.205 0.015 0
1.215 0.015 0
1.225 0.015 0
1.235 0.015 0
1.245 0.015 0
1.255 0.015 0
1.265 0.015 0
1.275 0.015 0
1.285 0.015 0
1.295 0.015 0
1.305 0.015 0
1.315 0.015 0
1.325 0.015 0
1.335 0.015 0
1.345 0.015 0
1.355 0.015 0
1.365 0.015 0
1.375 0.015 0
1.385 0.015 0
1.395 0.015 0
1.405 0.015 0
1.415 0.015 0
1.425 0.015 0
1.435 0.015 0
1.445 0.015 0
1.455 0.015 0
1.465 0.015 0
1.475 0.015 0
1.485 0.015 0
1.495 0.015 0
1.505 0.015 0
1.515 0.015 0
1.525 0.015 0
1.535 0.015 0
1.545 0.015 0
1.555 0.015 0
1.565 0.015 0
1.575 0.015 0
1.585 0.015 0
1.595 0.015 0
1.605 0.015 0
1.615 0.015 0
1.625 0.015 0
1.635 0.015 0
1.645 0.015 0
1.655 0.015 0
1.665 0.015 0
1.675 0.015 0
1.685 0.015 0
1.695 0.015 0
1.705 0.015 0
1.715 0.015 0
1.725 0.015 0
1.735 0.015 0
1.745 0.015 0
1.755 0.015 0
1.765 0.015 0
1.775 0.015 0
1.785 0.015 0
1.795 0.015 0
1.805 0.015 0
1.815 0.015 0
1.825 0.015 0
1.835 0.015 0
1.845 0.015 0
1.855 0.015 0
1.865 0.015 0
1.875 0.015 0
1.885 0.015 0
1.895 0.015 0
1.905 0.015 0
1.915 0.015 0
1.925 0.015 0
1.935 0.015 0
1.945 0.015 0
1.955 0.015 0
1.965 0.015 0
1.975 0.015 0
1.985 0.015 0
1.995 0.015 0
0.005 0.025 0
0.015 0.025 0
0.025 0.025 0
0.035 0.025 0
0.045 0.025 0
0.055 0.025 0
0.065 0.025 0
0.075 0.025 0
0.085 0.025 0
0.095 0.025 0
0.105 0.025 0
0.115 0.025 0
0.125 0.025 0
0.135 0.025 0
0.145 0.025 0
0.155 0.025 0
0.165 0.025 0
0.175 0.025 0
0.185 0.025 0
0.195 0.025 0
0.205 0.025 0
0.215 0.025 0
0.225 0.025 0
0.235 0.025 0
0.245 0.025 0
0.255 0.025 0
0.265 0.025 0
0.275 0.025 0
0.285 0.025 0
0.295 0.025 0
0.305 0.025 0
0.315 0.025 0
0.325 0.025 0
0.335 0.025 0
0.345 0.025 0
0.355 0.025 0
0.365 0.025 0
0.375 0.025 0
0.385 0.025 0
0.395 0.025 0
0.405 0.025 0
0.415 0.025 0
0.425 0.025 0
0.435 0.025 0
0.445 0.025 0
0.455 0.025 0
0.465 0.025 0
0.475 0.025 0
0.485 0.025 0
0.495 0.025 0
0.505 0.025 0
0.515 0.025 0
0.525 0.025 0
0.535 0.025 0
0.545 0.025 0
0.555 0.025 0
0.565 0.025 0
0.575 0.025 0
0.585 0.025 0
0.595 0.025 0
0.605 0.025 0
0.615 0.025 0
0.625 0.025 0
0.635 0.025 0
0.645 0.025 0
0.655 0.025 0
0.665 0.025 0
0.675 0.025 0
0.685 0.025 0
0.695 0.025 0
0.705 0.025 0
0.715 0.025 0
0.725 0.025 0
0.735 0.025 0
0.745 0.025 0
0.755 0.025 0
0.765 0.025 0
0.775 0.025 0
0.785 0.025 0
0.795 0.025 0
0.805 0.025 0
0.815 0.025 0
0.825 0.025 0
0.835 0.025 0
0.845 0.025 0
0.855 0.025 0
0.865 0.025 0
0.875 0.025 0
0.885 0.025 0
0.895 0.025 0
0.905 0.025 0
0.915 0.025 0
0.925 0.025 0
0.935 0.025 0
0.945 0.025 0
0.955 0.025 0
0.965 0.025 0
0.975 0.025 0
0.985 0.025 0
0.995 0.025 0
1.005 0.025 0
1.015 0.025 0
1.025 0.025 0
1.035 0.025 0
1.045 0.025 0
1.055 0.025 0
1.065 0.025 0
1.075 0.025 0
1.085 0.025 0
1.095 0.025 0
1.105 0.025 0
1.115 0.025 0
1.125 0.025 0
1.135 0.025 0
1.145 0.025 0
1.155 0.025 0
1.165 0.025 0
1.175 0.025 0
1.185 0.025 0
1.195 0.025 0
1.205 0.025 0
1.215 0.025 0
1.225 0.025 0
1.235 0.025 0
1.245 0.025 0
1.255 0.025 0
1.265 0.025 0
1.275 0.025 0
1.285 0.025 0
1.295 0.025 0
1.305 0.025 0
1.315 0.025 0
1.325 0.025 0
1.335 0.025 0
1.345 0.025 0
1.355 0.025 0
1.365 0.025 0
1.375 0.025 0
1.385 0.025 0
1.395 0.025 0
1.405 0.025 0
1.415 0.025 0
1.425 0.025 0
1.435 0.025 0
1.445 0.025 0
1.455 0.025 0
1.465 0.025 0
1.475 0.025 0
1.485 0.025 0
1.495 0.025 0
1.505 0.025 0
1.515 0.025 0
1.525 0.025 0
1.535 0.025 0
1.545 0.025 0
1.555 0.025 0
1.565 0.025 0
1.575 0.025 0
1.585 0.025 0
1.595 0.025 0
1.605 0.025 0
1.615 0.025 0
1.625 0.025 0
1.635 0.025 0
1.645 0.025 0
1.655 0.025 0
1.665 0.025 0
1.675 0.025 0
1.685 0.025 0
1.695 0.025 0
1.705 0.025 0
1.715 0.025 0
1.725 0.025 0
1.735 0.025 0
1.745 0.025 0
1.755 0.025 0
1.765 0.025 0
1.775 0.025 0
1.785 0.025 0
1.795 0.025 0
1.805 0.025 0
1.815 0.025 0
1.825 0.025 0
1.835 0.025 0
1.845 0.025 0
1.855 0.025 0
1.865 0.025 0
1.875 0.025 0
1.885 0.025 0
1.895 0.025 0
1.905 0.025 0
1.915 0.025 0
1.925 0.025 0
1.935 0.025 0
1.945 0.025 0
1.955 0.025 0
1.965 0.025 0
1.975 0.025 0
1.985 0.025 0
1.995 0.025 0
0.005 0.035 0
0.015 0.035 0
0.025 0.035 0
0.035 0.035 0
0.045 0.035 0
0.055 0.035 0
0.065 0.035 0
0.075 0.035 0
0.085 0.035 0
0.095 0.035 0
0.105 0.035 0
0.115 0.035 0
0.125 0.035 0
0.135 0.035 0
0.145 0.035 0
0.155 0.035 0
0.165 0.035 0
0.175 0.035 0
0.185 0.035 0
0.195 0.035 0
0.205 0.035 0
0.215 0.035 0
0.225 0.035 0
0.235 0.035 0
0.245 0.035 0
0.255 0.035 0
0.265 0.035 0
0.275 0.035 0
0.285 0.035 0
0.295 0.035 0
0.305 0.035 0
0.315 0.035 0
0.325 0.035 0
0.335 0.035 0
0.345 0.035 0
0.355 0.035 0
0.365 0.035 0
0.375 0.035 0
0.385 0.035 0
0.395 0.035 0
0.405 0.035 0
0.415 0.035 0
0.425 0.035 0
0.435 0.035 0
0.445 0.035 0
0.455 0.035 0
0.465 0.035 0
0.475 0.035 0
0.485 0.035 0
0.495 0.035 0
0.505 0.035 0
0.515 0.035 0
0.525 0.035 0
0.535 0.035 0
0.545 0.035 0
0.555 0.035 0
0.565 0.035 0
0.575 0.035 0
0.585 0.035 0
0.595 0.035 0
0.605 0.035 0
0.615 0.035 0
0.625 0.035 0
0.635 0.035 0
0.645 0.035 0
0.655 0.035 0
0.665 0.035 0
0.675 0.035 0
0.685 0.035 0
0.695 0.035 0
0.705 0.035 0
0.715 0.035 0
0.725 0.035 0
0.735 0.035 0
0.745 0.035 0
0.755 0.035 0
0.765 0.035 0
0.775 0.035 0
0.785 0.035 0
0.795 0.035 0
0.805 0.035 0
0.815 0.035 0
0.825 0.035 0
0.835 0.035 0
0.845 0.035 0
0.855 0.035 0
0.865 0.035 0
0.875 0.035 0
0.885 0.035 0
0.895 0.035 0
0.905 0.035 0
0.915 0.035 0
0.925 0.035 0
0.935 0.035 0
0.945 0.035 0
0.955 0.035 0
0.965 0.035 0
0.975 0.035 0
0.985 0.035 0
0.995 0.035 0
1.005 0.035 0
1.015 0.035 0
1.025 0.035 0
1.035 0.035 0
1.045 0.035 0
[...]
POINT_DATA 20000
VECTORS velocity float
0.950717 -2.41423e-05 0
0.909457 -5.41175e-05 0
0.875363 -8.84478e-05 0
0.847499 -0.000125985 0
0.824943 -0.00016583 0
0.806843 -0.000207382 0
0.792447 -0.000250172 0
0.781105 -0.000293975 0
0.772271 -0.000338583 0
0.765493 -0.000383997 0
0.760398 -0.000430144 0
0.756683 -0.000477149 0
0.754106 -0.000524995 0
0.75247 -0.000573863 0
0.751621 -0.000623748 0
0.751433 -0.000674846 0
0.751811 -0.000727138 0
0.752676 -0.000780804 0
0.753971 -0.000835795 0
0.755648 -0.000892257 0
0.757673 -0.000950104 0
0.760019 -0.00100943 0
0.762666 -0.00107009 0
0.765601 -0.00113213 0
0.768814 -0.00119535 0
0.772298 -0.0012597 0
0.776049 -0.00132495 0
0.780066 -0.00139094 0
0.784348 -0.00145737 0
0.788897 -0.00152401 0
0.793713 -0.00159049 0
0.7988 -0.00165645 0
0.804159 -0.0017215 0
0.809792 -0.00178516 0
0.815701 -0.00184699 0
0.821888 -0.00190641 0
0.828353 -0.00196294 0
0.835096 -0.00201594 0
0.842115 -0.00206491 0
0.84941 -0.00210914 0
0.856977 -0.00214816 0
0.864811 -0.00218121 0
0.872906 -0.00220788 0
0.881257 -0.00222742 0
0.889853 -0.00223952 0
0.898686 -0.00224345 0
0.907745 -0.00223905 0
0.917016 -0.00222565 0
0.926487 -0.00220327 0
0.936141 -0.00217136 0
0.945962 -0.00213013 0
0.955933 -0.00207915 0
0.966036 -0.00201887 0
0.976249 -0.00194901 0
0.986554 -0.00187024 0
0.996928 -0.00178243 0
1.00735 -0.00168649 0
1.0178 -0.0015824 0
1.02825 -0.00147132 0
1.03867 -0.00135331 0
1.04906 -0.00122975 0
1.05937 -0.00110074 0
1.0696 -0.000967836 0
1.07971 -0.000831168 0
1.08968 -0.000692443 0
1.09949 -0.000551739 0
1.10912 -0.000410884 0
1.11854 -0.000269867 0
1.12774 -0.000130604 0
1.13669 7.05878e-06 0
1.14537 0.000141139 0
1.15377 0.000271984 0
1.16186 0.000397564 0
1.16963 0.000518463 0
1.17706 0.000632619 0
1.18414 0.000740892 0
1.19084 0.000841191 0
1.19717 0.00093469 0
1.2031 0.00101927 0
1.20862 0.00109644 0
1.21374 0.00116405 0
1.21842 0.00122398 0
1.22268 0.00127402 0
1.22651 0.00131645 0
1.2299 0.00134896 0
1.23285 0.00137425 0
1.23537 0.0013899 0
1.23745 0.00139902 0
1.2391 0.00139904 0
1.24033 0.00139349 0
1.24115 0.0013796 0
1.24156 0.00136133 0
1.24158 0.00133564 0
1.24122 0.00130691 0
1.2405 0.00127181 0
1.23943 0.00123508 0
1.23804 0.00119307 0
1.23635 0.00115087 0
1.23437 0.00110447 0
1.23214 0.00105925 0
1.22966 0.00101081 0
1.22698 0.000964828 0
1.22411 0.000916476 0
1.22107 0.000871691 0
1.21789 0.000825222 0
1.21459 0.000783229 0
1.21119 0.000740058 0
1.20772 0.000702056 0
1.2042 0.000663196 0
1.20064 0.000629987 0
1.19706 0.000596067 0
1.19348 0.000568078 0
1.18992 0.000539377 0
1.18638 0.000516711 0
1.18287 0.000493214 0
1.17942 0.000475707 0
1.17602 0.000457166 0
1.17269 0.000444454 0
1.16942 0.000430451 0
1.16623 0.000422034 0
1.16312 0.000412047 0
1.16009 0.000407343 0
1.15714 0.000400795 0
1.15427 0.000399194 0
1.15149 0.000395494 0
1.14878 0.000396395 0
1.14616 0.000394974 0
1.14361 0.00039781 0
1.14114 0.000398144 0
1.13874 0.000402403 0
1.13641 0.000404025 0
1.13415 0.00040926 0
1.13195 0.000411768 0
1.12982 0.000417604 0
1.12774 0.000420661 0
1.12571 0.000426791 0
1.12373 0.000430124 0
1.12181 0.000436307 0
1.11992 0.000439703 0
1.11808 0.000445757 0
1.11627 0.000449053 0
1.1145 0.000454849 0
1.11277 0.000457926 0
1.11106 0.000463381 0
1.10938 0.000466158 0
1.10773 0.000471224 0
1.10611 0.000473646 0
1.10451 0.000478306 0
1.10293 0.000480343 0
1.10137 0.000484602 0
1.09982 0.000486239 0
1.0983 0.000490119 0
1.09679 0.000491353 0
1.0953 0.000494889 0
1.09382 0.000495721 0
1.09236 0.000498953 0
1.09091 0.000499391 0
1.08947 0.000502364 0
1.08805 0.000502413 0
1.08664 0.000505171 0
1.08524 0.000504837 0
1.08385 0.000507422 0
1.08248 0.000506705 0
1.08111 0.000509153 0
1.07977 0.000508049 0
1.07843 0.000510392 0
1.0771 0.000508892 0
1.07579 0.000511152 0
1.07449 0.00050924 0
1.07321 0.00051143 0
1.07194 0.000509083 0
1.07068 0.000511207 0
1.06944 0.000508393 0
1.06821 0.000510444 0
1.067 0.000507124 0
1.0658 0.000509084 0
1.06462 0.00050521 0
1.06346 0.000507047 0
1.06232 0.000502562 0
1.0612 0.000504233 0
1.06009 0.000499071 0
1.05901 0.000500517 0
1.05795 0.000494604 0
1.05691 0.000495754 0
1.0559 0.000489004 0
1.05491 0.000489772 0
1.05395 0.000482096 0
1.05302 0.000482382 0
1.05211 0.000473698 0
1.05124 0.000473388 0
1.0504 0.000463641 0
1.04959 0.000462621 0
1.04882 0.000451845 0
1.04808 0.00045003 0
1.04739 0.000438498 0
1.04674 0.000435921 0
1.04613 0.000424522 0
1.04558 0.000421601 0
1.0451 0.000412778 0
1.04477 0.000410999 0
0.950702 -7.23808e-05 0
0.90943 -0.000162237 0
0.875327 -0.000265169 0
0.847457 -0.000377678 0
0.824895 -0.000497156 0
0.806792 -0.000621684 0
0.792392 -0.000750011 0
0.781048 -0.000881273 0
0.772212 -0.00101507 0
0.765432 -0.00115116 0
0.760334 -0.0012896 0
0.756618 -0.00143045 0
0.754038 -0.00157401 0
0.7524 -0.00172046 0
0.751548 -0.00187016 0
0.751358 -0.00202331 0
0.751732 -0.00218026 0
0.752595 -0.00234114 0
0.753886 -0.00250621 0
0.75556 -0.00267551 0
0.757582 -0.00284918 0
0.759925 -0.00302709 0
0.762569 -0.00320925 0
0.765501 -0.00339535 0
0.768711 -0.0035852 0
0.772192 -0.00377831 0
0.775941 -0.00397425 0
0.779956 -0.00417233 0
0.784237 -0.00437187 0
0.788785 -0.00457195 0
0.793602 -0.00477163 0
0.798689 -0.00496977 0
0.80405 -0.00516515 0
0.809685 -0.00535643 0
0.815597 -0.00554213 0
0.821788 -0.00572074 0
0.828258 -0.00589054 0
0.835007 -0.0060499 0
0.842034 -0.00619695 0
0.849336 -0.00633 0
0.856912 -0.0064471 0
0.864756 -0.00654659 0
0.872862 -0.00662655 0
0.881224 -0.00668547 0
0.889834 -0.00672156 0
0.89868 -0.00673359 0
0.907752 -0.00672001 0
0.917038 -0.00667998 0
0.926522 -0.00661231 0
0.936191 -0.00651664 0
0.946027 -0.00639221 0
0.956012 -0.00623927 0
0.966128 -0.00605754 0
0.976355 -0.00584788 0
0.986672 -0.00561053 0
0.997058 -0.00534699 0
1.00749 -0.00505801 0
1.01795 -0.00474566 0
1.0284 -0.00441115 0
1.03884 -0.0040571 0
1.04923 -0.00368506 0
1.05954 -0.00329811 0
1.06977 -0.00289805 0
1.07988 -0.00248829 0
1.08985 -0.00207075 0
1.09965 -0.00164907 0
1.10928 -0.00122517 0
1.11869 -0.000802791 0
1.12788 -0.000383696 0
1.13682 2.83591e-05 0
1.14549 0.000431879 0
1.15387 0.000823198 0
1.16194 0.00120121 0
1.16969 0.0015624 0
1.17711 0.00190614 0
1.18416 0.00222916 0
1.19085 0.00253139 0
1.19715 0.0028098 0
1.20306 0.00306496 0
1.20856 0.00329412 0
1.21365 0.00349852 0
1.21831 0.00367569 0
1.22255 0.00382759 0
1.22635 0.00395199 0
1.22972 0.00405157 0
1.23265 0.00412432 0
1.23514 0.00417364 0
1.2372 0.00419765 0
1.23883 0.00420044 0
1.24004 0.00418021 0
1.24083 0.00414169 0
1.24122 0.00408305 0
1.24123 0.00400958 0
1.24085 0.00391932 0
1.24011 0.00381804 0
1.23903 0.00370355 0
1.23763 0.00358201 0
1.23593 0.00345084 0
1.23394 0.00331652 0
1.23169 0.00317603 0
1.22921 0.00303602 0
1.22652 0.00289294 0
1.22364 0.00275357 0
1.2206 0.00261378 0
1.21741 0.0024804 0
1.21411 0.00234869 0
1.21071 0.00222549 0
1.20724 0.00210547 0
1.20371 0.00199544 0
1.20015 0.00188954 0
1.19657 0.00179452 0
1.19299 0.00170404 0
1.18942 0.00162481 0
1.18588 0.0015501 0
1.18238 0.00148658 0
1.17892 0.0014272 0
1.17552 0.00137858 0
1.17219 0.00133348 0
1.16892 0.00129848 0
1.16573 0.00126621 0
1.16262 0.00124321 0
1.15959 0.00122208 0
1.15664 0.00120931 0
1.15377 0.00119754 0
1.15098 0.00119319 0
1.14828 0.00118902 0
1.14565 0.00119136 0
1.1431 0.00119313 0
1.14063 0.00120055 0
1.13823 0.00120676 0
1.1359 0.00121784 0
1.13364 0.00122719 0
1.13144 0.00124071 0
1.1293 0.00125207 0
1.12722 0.00126702 0
1.12519 0.00127948 0
1.12321 0.00129504 0
1.12128 0.00130789 0
1.1194 0.00132342 0
1.11755 0.0013361 0
1.11575 0.00135114 0
1.11398 0.00136323 0
1.11224 0.00137745 0
1.11054 0.00138868 0
1.10886 0.00140187 0
1.10721 0.00141205 0
1.10559 0.00142409 0
1.10398 0.00143314 0
1.1024 0.00144398 0
1.10084 0.00145184 0
1.0993 0.00146151 0
1.09778 0.0014682 0
1.09627 0.00147674 0
1.09478 0.00148228 0
1.0933 0.00148978 0
1.09184 0.00149423 0
1.09039 0.00150078 0
1.08895 0.00150419 0
1.08753 0.00150988 0
1.08612 0.00151231 0
1.08472 0.00151723 0
1.08334 0.00151872 0
1.08197 0.00152296 0
1.08061 0.00152355 0
1.07926 0.00152717 0
1.07792 0.00152688 0
1.0766 0.00152992 0
1.07529 0.00152874 0
1.07399 0.00153122 0
1.07271 0.00152912 0
1.07144 0.00153104 0
1.07019 0.00152798 0
1.06895 0.0015293 0
1.06772 0.0015252 0
1.06651 0.00152586 0
1.06532 0.00152061 0
1.06414 0.0015205 0
1.06298 0.00151398 0
1.06184 0.00151297 0
1.06072 0.001505 0
1.05962 0.00150294 0
1.05854 0.00149331 0
1.05748 0.00148998 0
1.05645 0.00147847 0
1.05544 0.00147364 0
1.05445 0.00145999 0
1.05349 0.00145338 0
1.05256 0.00143731 0
1.05166 0.00142861 0
1.05078 0.00140986 0
1.04994 0.00139881 0
1.04914 0.00137722 0
1.04837 0.00136362 0
1.04764 0.00133937 0
1.04694 0.0013234 0
1.04629 0.00129753 0
1.04569 0.00128045 0
1.04514 0.00125637 0
1.04467 0.00124225 0
1.04433 0.00122932 0
0.950672 -0.000120471 0
0.909376 -0.000270029 0
0.875255 -0.000441331 0
0.847372 -0.00062859 0
0.8248 -0.000827412 0
0.806689 -0.00103468 0
0.792283 -0.00124823 0
0.780934 -0.00146673 0
0.772094 -0.00168939 0
0.765309 -0.00191596 0
0.760208 -0.00214637 0
0.756487 -0.00238093 0
0.753903 -0.00261991 0
0.75226 -0.00286385 0
0.751402 -0.00311312 0
0.751206 -0.0033683 0
0.751575 -0.00362972 0
0.752431 -0.00389785 0
0.753716 -0.0041729 0
0.755384 -0.00445516 0
0.757399 -0.00474463 0
0.759736 -0.00504137 0
0.762374 -0.00534511 0
0.7653 -0.00565562 0
0.768504 -0.00597233 0
0.771981 -0.00629464 0
0.775725 -0.00662165 0
0.779737 -0.00695237 0
0.784016 -0.00728553 0
0.788562 -0.00761971 0
0.793379 -0.00795325 0
0.798467 -0.00828429 0
0.80383 -0.00861079 0
0.80947 -0.00893046 0
0.815389 -0.00924091 0
0.821588 -0.00953947 0
0.828067 -0.00982344 0
0.834828 -0.0100899 0
0.841869 -0.0103359 0
0.849188 -0.0105583 0
0.856782 -0.0107543 0
0.864645 -0.0109205 0
0.872774 -0.0110544 0
0.881159 -0.0111527 0
0.889794 -0.0112131 0
0.898666 -0.0112329 0
0.907766 -0.0112102 0
0.91708 -0.0111427 0
0.926593 -0.0110294 0
0.936291 -0.0108688 0
0.946156 -0.0106605 0
0.956169 -0.010404 0
0.966313 -0.0100998 0
0.976566 -0.00974831 0
0.986907 -0.00935116 0
0.997316 -0.00890955 0
1.00777 -0.00842614 0
1.01824 -0.00790299 0
1.02871 -0.00734365 0
1.03916 -0.00675091 0
1.04956 -0.00612912 0
1.05988 -0.00548161 0
1.07011 -0.00481333 0
1.08022 -0.00412799 0
1.09018 -0.00343095 0
1.09998 -0.00272605 0
1.10959 -0.00201886 0
1.11899 -0.00131315 0
1.12815 -0.000614522 0
1.13707 7.35647e-05 0
1.14571 0.000745653 0
1.15406 0.00139876 0
1.1621 0.00202773 0
1.16982 0.00263023 0
1.17719 0.00320154 0
1.18421 0.00374009 0
1.19085 0.00424168 0
1.19711 0.00470565 0
1.20297 0.00512836 0
1.20843 0.00551012 0
1.21347 0.0058479 0
1.21808 0.00614302 0
1.22227 0.00639305 0
1.22603 0.00660036 0
1.22935 0.00676306 0
1.23223 0.00688455 0
1.23468 0.00696343 0
1.23669 0.00700407 0
1.23828 0.00700543 0
1.23944 0.00697282 0
1.2402 0.00690542 0
1.24055 0.00680931 0
1.24052 0.00668377 0
1.24011 0.00653553 0
1.23934 0.00636376 0
1.23823 0.00617569 0
1.23681 0.00597022 0
1.23508 0.0057549 0
1.23307 0.00552817 0
1.23081 0.00529777 0
1.22831 0.00506153 0
1.2256 0.00482722 0
1.22271 0.00459197 0
1.21965 0.00436345 0
1.21646 0.00413804 0
1.21315 0.00392321 0
1.20974 0.00371456 0
1.20627 0.00351935 0
1.20274 0.00333243 0
1.19917 0.00316082 0
1.19559 0.00299866 0
1.192 0.00285277 0
1.18843 0.0027167 0
1.18489 0.00259705 0
1.18138 0.00248692 0
1.17793 0.00239274 0
1.17453 0.00230726 0
1.17119 0.00223678 0
1.16792 0.00217383 0
1.16473 0.00212462 0
1.16162 0.00208156 0
1.15858 0.00205079 0
1.15563 0.00202471 0
1.15276 0.0020094 0
1.14997 0.00199734 0
1.14726 0.00199455 0
1.14463 0.00199367 0
1.14208 0.00200062 0
1.13961 0.00200829 0
1.13721 0.00202248 0
1.13487 0.00203636 0
1.13261 0.00205561 0
1.13041 0.00207368 0
1.12827 0.00209615 0
1.12618 0.00211674 0
1.12415 0.0021409 0
1.12217 0.00216268 0
1.12024 0.00218733 0
1.11836 0.00220922 0
1.11651 0.00223347 0
1.1147 0.00225469 0
1.11293 0.00227786 0
1.11119 0.00229785 0
1.10949 0.0023195 0
1.10781 0.00233788 0
1.10616 0.00235774 0
1.10454 0.00237428 0
1.10293 0.00239221 0
1.10135 0.00240683 0
1.09979 0.0024228 0
1.09825 0.00243546 0
1.09673 0.00244952 0
1.09522 0.00246028 0
1.09373 0.00247253 0
1.09226 0.00248147 0
1.0908 0.00249204 0
1.08935 0.00249925 0
1.08792 0.00250829 0
1.0865 0.00251388 0
1.08509 0.00252153 0
1.0837 0.00252561 0
1.08232 0.00253199 0
1.08095 0.00253464 0
1.07959 0.00253986 0
1.07825 0.00254113 0
1.07692 0.00254527 0
1.0756 0.00254518 0
1.07429 0.00254829 0
1.073 0.00254682 0
1.07172 0.00254889 0
1.07045 0.002546 0
1.0692 0.00254699 0
1.06797 0.00254258 0
1.06674 0.0025424 0
1.06554 0.00253632 0
1.06435 0.00253482 0
1.06318 0.00252688 0
1.06202 0.00252387 0
1.06089 0.00251382 0
1.05977 0.00250905 0
1.05868 0.00249659 0
1.0576 0.00248973 0
1.05655 0.00247451 0
1.05552 0.00246519 0
1.05451 0.0024468 0
1.05353 0.0024346 0
1.05257 0.00241257 0
1.05164 0.002397 0
1.05074 0.00237089 0
1.04988 0.00235147 0
1.04904 0.00232086 0
1.04824 0.00229721 0
1.04747 0.00226201 0
1.04675 0.00223411 0
1.04606 0.00219504 0
1.04541 0.00216402 0
1.04481 0.00212411 0
1.04426 0.0020942 0
1.04379 0.00206244 0
1.04346 0.00204596 0
0.950626 -0.000168321 0
0.909295 -0.000377261 0
0.875148 -0.000616579 0
0.847244 -0.000878161 0
0.824658 -0.00115592 0
0.806535 -0.00144545 0
0.792121 -0.0017438 0
0.780764 -0.00204904 0
0.771917 -0.00236018 0
0.765126 -0.00267673 0
0.760018 -0.00299878 0
0.75629 -0.00332658 0
0.753699 -0.00366072 0
0.752049 -0.00400175 0
0.751184 -0.00435043 0
0.750979 -0.00470733 0
0.751339 -0.00507316 0
0.752186 -0.00544836 0
0.753462 -0.00583345 0
0.75512 -0.00622864 0
0.757125 -0.00663414 0
0.759452 -0.00704984 0
0.762081 -0.00747557 0
0.764998 -0.00791081 0
0.768194 -0.00835496 0
0.771663 -0.00880702 0
0.775401 -0.00926588 0
0.779407 -0.00973003 0
0.783682 -0.0101978 0
0.788226 -0.0106671 0
0.793042 -0.0111356 0
0.798133 -0.0116008 0
0.8035 -0.0120597 0
0.809146 -0.0125091 0
0.815074 -0.0129456 0
0.821285 -0.0133656 0
0.827779 -0.013765 0
0.834558 -0.01414 0
0.84162 -0.0144861 0
0.848963 -0.0147992 0
0.856584 -0.0150749 0
0.864478 -0.0153089 0
0.872639 -0.0154971 0
0.88106 -0.0156355 0
0.889731 -0.0157201 0
0.898644 -0.0157478 0
0.907785 -0.0157152 0
0.917141 -0.0156199 0
0.926698 -0.0154595 0
0.936439 -0.0152328 0
0.946346 -0.0149385 0
0.956402 -0.0145767 0
0.966587 -0.0141473 0
0.976879 -0.0136517 0
0.987258 -0.0130914 0
0.9977 -0.0124692 0
1.00818 -0.0117876 0
1.01868 -0.0110509 0
1.02918 -0.0102628 0
1.03964 -0.00942863 0
1.05005 -0.00855312 0
1.06038 -0.00764259 0
1.07061 -0.00670234 0
1.08072 -0.00573941 0
1.09067 -0.00475948 0
1.10046 -0.00376996 0
1.11004 -0.00277662 0
1.11942 -0.00178697 0
1.12855 -0.000806533 0
1.13743 0.000157333 0
1.14603 0.00109963 0
1.15434 0.00201337 0
1.16233 0.00289433 0
1.16999 0.00373612 0
1.17731 0.00453545 0
1.18426 0.0052867 0
1.19084 0.00598771 0
1.19703 0.00663369 0
1.20283 0.00722374 0
1.20821 0.00775398 0
1.21318 0.00822483 0
1.21772 0.00863335 0
1.22184 0.00898134 0
1.22552 0.00926673 0
1.22877 0.00949268 0
1.23158 0.00965797 0
1.23396 0.00976703 0
1.23591 0.00981936 0
1.23743 0.00982058 0
1.23854 0.00977072 0
1.23924 0.00967648 0
1.23953 0.00953821 0
1.23945 0.00936347 0
1.23899 0.00915272 0
1.23817 0.00891417 0
1.23702 0.00864816 0
1.23556 0.00836328 0
1.23379 0.00805952 0
1.23176 0.00774566 0
1.22946 0.00742107 0
1.22694 0.00709453 0
1.22421 0.00676462 0
1.2213 0.00643994 0
1.21823 0.00611815 0
1.21502 0.00580752 0
1.2117 0.00550478 0
1.20828 0.00521778 0
1.2048 0.00494228 0
1.20126 0.00468572 0
1.19769 0.00444293 0
1.1941 0.00422094 0
1.19051 0.0040138 0
1.18694 0.00382816 0
1.18339 0.00365739 0
1.17989 0.00350783 0
1.17643 0.00337236 0
1.17302 0.00325706 0
1.16969 0.00315445 0
1.16642 0.00307044 0
1.16322 0.00299733 0
1.1601 0.0029409 0
1.15707 0.0028934 0
1.15411 0.00286051 0
1.15124 0.00283451 0
1.14845 0.00282103 0
1.14573 0.00281248 0
1.1431 0.00281443 0
1.14055 0.00281952 0
1.13807 0.00283324 0
1.13566 0.00284852 0
1.13333 0.00287076 0
1.13106 0.00289321 0
1.12886 0.00292117 0
1.12671 0.00294823 0
1.12463 0.00297959 0
1.12259 0.00300917 0
1.12061 0.00304205 0
1.11868 0.00307249 0
1.11679 0.00310543 0
1.11494 0.00313545 0
1.11313 0.00316737 0
1.11136 0.00319605 0
1.10962 0.00322618 0
1.10791 0.00325286 0
1.10624 0.00328071 0
1.10459 0.003305 0
1.10296 0.00333027 0
1.10136 0.00335195 0
1.09978 0.00337453 0
1.09822 0.00339352 0
1.09668 0.00341343 0
1.09516 0.00342977 0
1.09366 0.0034471 0
1.09217 0.00346087 0
1.0907 0.00347578 0
1.08924 0.00348712 0
1.0878 0.00349979 0
1.08637 0.00350887 0
1.08496 0.00351949 0
1.08355 0.00352644 0
1.08216 0.00353521 0
1.08079 0.00354017 0
1.07942 0.00354723 0
1.07807 0.0035503 0
1.07673 0.00355577 0
1.0754 0.00355701 0
1.07409 0.00356098 0
1.07279 0.0035604 0
1.0715 0.00356288 0
1.07023 0.00356044 0
1.06897 0.0035614 0
1.06773 0.003557 0
1.0665 0.00355633 0
1.06528 0.00354981 0
1.06408 0.00354734 0
1.0629 0.00353846 0
1.06174 0.00353397 0
1.06059 0.00352243 0
1.05946 0.00351557 0
1.05835 0.00350099 0
1.05726 0.00349138 0
1.05619 0.00347331 0
1.05514 0.00346045 0
1.05412 0.00343834 0
1.05312 0.00342168 0
1.05214 0.00339493 0
1.0512 0.00337382 0
1.05027 0.00334178 0
1.04938 0.00331554 0
1.04852 0.00327758 0
1.04769 0.00324558 0
1.04689 0.00320127 0
1.04613 0.00316319 0
1.04541 0.00311277 0
1.04473 0.00306926 0
1.04409 0.00301489 0
1.04349 0.00296931 0
1.04295 0.00291821 0
1.04249 0.0028812 0
1.04216 0.00285357 0
0.950566 -0.000215825 0
0.909188 -0.000483715 0
0.875006 -0.000790521 0
0.847075 -0.00112587 0
0.824469 -0.00148194 0
0.806331 -0.00185312 0
0.791904 -0.00223559 0
0.780537 -0.00262697 0
0.771681 -0.0030259 0
0.764881 -0.0034319 0
0.759765 -0.00384494 0
0.756029 -0.00426553 0
0.753429 -0.00469426 0
0.751768 -0.00513204 0
0.750892 -0.00557965 0
0.750677 -0.00603806 0
0.751025 -0.00650799 0
0.751859 -0.00699022 0
0.753122 -0.00748523 0
0.754767 -0.00799351 0
0.756759 -0.00851513 0
0.759073 -0.00905017 0
0.761689 -0.00959824 0
0.764594 -0.0101589 0
0.767779 -0.0107311 0
0.771237 -0.0113138 0
0.774966 -0.0119055 0
0.778965 -0.0125043 0
0.783234 -0.0131079 0
0.787775 -0.0137138 0
0.792591 -0.0143189 0
0.797683 -0.0149199 0
0.803056 -0.015513 0
0.80871 -0.016094 0
0.81465 -0.0166586 0
0.820877 -0.0172019 0
0.827391 -0.0177188 0
0.834194 -0.018204 0
0.841284 -0.0186522 0
0.848659 -0.0190575 0
0.856316 -0.0194144 0
0.864249 -0.0197174 0
0.872454 -0.0199609 0
0.880922 -0.0201397 0
0.889645 -0.020249 0
0.89861 -0.0202841 0
0.907806 -0.0202412 0
0.917218 -0.0201166 0
0.926833 -0.0199079 0
0.936631 -0.0196127 0
0.946597 -0.0192302 0
0.956709 -0.0187597 0
0.966948 -0.0182021 0
0.977292 -0.0175583 0
0.987719 -0.0168312 0
0.998206 -0.0160235 0
1.00873 -0.0151397 0
1.01927 -0.0141842 0
1.02979 -0.0131632 0
1.04028 -0.0120823 0
1.0507 -0.0109491 0
1.06104 -0.00977039 0
1.07128 -0.0085547 0
1.08137 -0.00730948 0
1.09132 -0.00604394 0
1.10108 -0.00476581 0
1.11064 -0.00348455 0
1.11998 -0.00220781 0
1.12907 -0.000944927 0
1.1379 0.000296945 0
1.14644 0.00150887 0
1.15469 0.00268454 0
1.16261 0.00381571 0
1.1702 0.00489718 0
1.17744 0.00592166 0
1.18431 0.00688525 0
1.1908 0.00778178 0
1.19691 0.00860888 0
1.20261 0.00936155 0
1.2079 0.0100391 0
1.21277 0.0106377 0
1.21722 0.0111583 0
1.22124 0.0115986 0
1.22483 0.011961 0
1.22798 0.0122444 0
1.2307 0.0124529 0
1.23299 0.0125864 0
1.23485 0.0126505 0
1.23628 0.012646 0
1.23731 0.0125799 0
1.23792 0.0124535 0
1.23815 0.0122751 0
1.23799 0.0120463 0
1.23747 0.011776 0
1.23659 0.0114662 0
1.23539 0.0111263 0
1.23387 0.0107578 0
1.23206 0.0103706 0
1.22998 0.00996556 0
1.22765 0.00955261 0
1.2251 0.00913182 0
1.22234 0.00871281 0
1.2194 0.00829469 0
1.21631 0.00788662 0
1.21309 0.00748662 0
1.20975 0.00710328 0
1.20632 0.00673346 0
1.20282 0.00638515 0
1.19928 0.00605409 0
1.1957 0.00574767 0
1.19211 0.00546058 0
1.18851 0.00519966 0
1.18494 0.00495875 0
1.18139 0.00474419 0
1.17788 0.00454911 0
1.17441 0.00437946 0
1.17101 0.00422788 0
1.16767 0.00410002 0
1.1644 0.00398818 0
1.1612 0.00389781 0
1.15808 0.00382104 0
1.15504 0.00376317 0
1.15208 0.00371635 0
1.1492 0.00368576 0
1.1464 0.00366367 0
1.14369 0.00365521 0