# vtk DataFile Version 3.0
Flow field at step 250
ASCII
DATASET STRUCTURED_GRID
DIMENSIONS 200 100 1
POINTS 20000 float
0.005 0.005 0
0.015 0.005 0
0.025 0.005 0
0.035 0.005 0
0.045 0.005 0
0.055 0.005 0
0.065 0.005 0
0.075 0.005 0
0.085 0.005 0
0.095 0.005 0
0.105 0.005 0
0.115 0.005 0
0.125 0.005 0
0.135 0.005 0
0.145 0.005 0
0.155 0.005 0
0.165 0.005 0
0.175 0.005 0
0.185 0.005 0
0.195 0.005 0
0.205 0.005 0
0.215 0.005 0
0.225 0.005 0
0.235 0.005 0
0.245 0.005 0
0.255 0.005 0
0.265 0.005 0
0.275 0.005 0
0.285 0.005 0
0.295 0.005 0
0.305 0.005 0
0.315 0.005 0
0.325 0.005 0
0.335 0.005 0
0.345 0.005 0
0.355 0.005 0
0.365 0.005 0
0.375 0.005 0
0.385 0.005 0
0.395 0.005 0
0.405 0.005 0
0.415 0.005 0
0.425 0.005 0
0.435 0.005 0
0.445 0.005 0
0.455 0.005 0
0.465 0.005 0
0.475 0.005 0
0.485 0.005 0
0.495 0.005 0
0.505 0.005 0
0.515 0.005 0
0.525 0.005 0
0.535 0.005 0
0.545 0.005 0
0.555 0.005 0
0.565 0.005 0
0.575 0.005 0
0.585 0.005 0
0.595 0.005 0
0.605 0.005 0
0.615 0.005 0
0.625 0.005 0
0.635 0.005 0
0.645 0.005 0
0.655 0.005 0
0.665 0.005 0
0.675 0.005 0
0.685 0.005 0
0.695 0.005 0
0.705 0.005 0
0.715 0.005 0
0.725 0.005 0
0.735 0.005 0
0.745 0.005 0
0.755 0.005 0
0.765 0.005 0
0.775 0.005 0
0.785 0.005 0
0.795 0.005 0
0.805 0.005 0
0.815 0.005 0
0.825 0.005 0
0.835 0.005 0
0.845 0.005 0
0.855 0.005 0
0.865 0.005 0
0.875 0.005 0
0.885 0.005 0
0.895 0.005 0
0.905 0.005 0
0.915 0.005 0
0.925 0.005 0
0.935 0.005 0
0.945 0.005 0
0.955 0.005 0
0.965 0.005 0
0.975 0.005 0
0.985 0.005 0
0.995 0.005 0
1.005 0.005 0
1.015 0.005 0
1.025 0.005 0
1.035 0.005 0
1.045 0.005 0
1.055 0.005 0
1.065 0.005 0
1.075 0.005 0
1.085 0.005 0
1.095 0.005 0
1.105 0.005 0
1.115 0.005 0
1.125 0.005 0
1.135 0.005 0
1.145 0.005 0
1.155 0.005 0
1.165 0.005 0
1.175 0.005 0
1.185 0.005 0
1.195 0.005 0
1.205 0.005 0
1.215 0.005 0
1.225 0.005 0
1.235 0.005 0
1.245 0.005 0
1.255 0.005 0
1.265 0.005 0
1.275 0.005 0
1.285 0.005 0
1.295 0.005 0
1.305 0.005 0
1.315 0.005 0
1.325 0.005 0
1.335 0.005 0
1.345 0.005 0
1.355 0.005 0
1.365 0.005 0
1.375 0.005 0
1.385 0.005 0
1.395 0.005 0
1.405 0.005 0
1.415 0.005 0
1.425 0.005 0
1.435 0.005 0
1.445 0.005 0
1.455 0.005 0
1.465 0.005 0
1.475 0.005 0
1.485 0.005 0
1.495 0.005 0
1.505 0.005 0
1.515 0.005 0
1.525 0.005 0
1.535 0.005 0
1.545 0.005 0
1.555 0.005 0
1.565 0.005 0
1.575 0.005 0
1.585 0.005 0
1.595 0.005 0
1.605 0.005 0
1.615 0.005 0
1.625 0.005 0
1.635 0.005 0
1.645 0.005 0
1.655 0.005 0
1.665 0.005 0
1.675 0.005 0
1.685 0.005 0
1.695 0.005 0
1.705 0.005 0
1.715 0.005 0
1.725 0.005 0
1.735 0.005 0
1.745 0.005 0
1.755 0.005 0
1.765 0.005 0
1.775 0.005 0
1.785 0.005 0
1.795 0.005 0
1.805 0.005 0
1.815 0.005 0
1.825 0.005 0
1.835 0.005 0
1.845 0.005 0
1.855 0.005 0
1.865 0.005 0
1.875 0.005 0
1.885 0.005 0
1.895 0.005 0
1.905 0.005 0
1.915 0.005 0
1.925 0.005 0
1.935 0.005 0
1.945 0.005 0
1.955 0.005 0
1.965 0.005 0
1.975 0.005 0
1.985 0.005 0
1.995 0.005 0
0.005 0.015 0
0.015 0.015 0
0.025 0.015 0
0.035 0.015 0
0.045 0.015 0
0.055 0.015 0
0.065 0.015 0
0.075 0.015 0
0.085 0.015 0
0.095 0.015 0
0.105 0.015 0
0.115 0.015 0
0.125 0.015 0
0.135 0.015 0
0.145 0.015 0
0.155 0.015 0
0.165 0.015 0
0.175 0.015 0
0.185 0.015 0
0.195 0.015 0
0.205 0.015 0
0.215 0.015 0
0.225 0.015 0
0.235 0.015 0
0.245 0.015 0
0.255 0.015 0
0.265 0.015 0
0.275 0.015 0
0.285 0.015 0
0.295 0.015 0
0.305 0.015 0
0.315 0.015 0
0.325 0.015 0
0.335 0.015 0
0.345 0.015 0
0.355 0.015 0
0.365 0.015 0
0.375 0.015 0
0.385 0.015 0
0.395 0.015 0
0.405 0.015 0
0.415 0.015 0
0.425 0.015 0
0.435 0.015 0
0.445 0.015 0
0.455 0.015 0
0.465 0.015 0
0.475 0.015 0
0.485 0.015 0
0.495 0.015 0
0.505 0.015 0
0.515 0.015 0
0.525 0.015 0
0.535 0.015 0
0.545 0.015 0
0.555 0.015 0
0.565 0.015 0
0.575 0.015 0
0.585 0.015 0
0.595 0.015 0
0.605 0.015 0
0.615 0.015 0
0.625 0.015 0
0.635 0.015 0
0.645 0.015 0
0.655 0.015 0
0.665 0.015 0
0.675 0.015 0
0.685 0.015 0
0.695 0.015 0
0.705 0.015 0
0.715 0.015 0
0.725 0.015 0
0.735 0.015 0
0.745 0.015 0
0.755 0.015 0
0.765 0.015 0
0.775 0.015 0
0.785 0.015 0
0.795 0.015 0
0.805 0.015 0
0.815 0.015 0
0.825 0.015 0
0.835 0.015 0
0.845 0.015 0
0.855 0.015 0
0.865 0.015 0
0.875 0.015 0
0.885 0.015 0
0.895 0.015 0
0.905 0.015 0
0.915 0.015 0
0.925 0.015 0
0.935 0.015 0
0.945 0.015 0
0.955 0.015 0
0.965 0.015 0
0.975 0.015 0
0.985 0.015 0
0.995 0.015 0
1.005 0.015 0
1.015 0.015 0
1.025 0.015 0
1.035 0.015 0
1.045 0.015 0
1.055 0.015 0
1.065 0.015 0
1.075 0.015 0
1.085 0.015 0
1.095 0.015 0
1.105 0.015 0
1.115 0.015 0
1.125 0.015 0
1.135 0.015 0
1.145 0.015 0
1.155 0.015 0
1.165 0.015 0
1.175 0.015 0
1.185 0.015 0
1.195 0.015 0
1.205 0.015 0
1.215 0.015 0
1.225 0.015 0
1.235 0.015 0
1.245 0.015 0
1.255 0.015 0
1.265 0.015 0
1.275 0.015 0
1.285 0.015 0
1.295 0.015 0
1.305 0.015 0
1.315 0.015 0
1.325 0.015 0
1.335 0.015 0
1.345 0.015 0
1.355 0.015 0
1.365 0.015 0
1.375 0.015 0
1.385 0.015 0
1.395 0.015 0
1.405 0.015 0
1.415 0.015 0
1.425 0.015 0
1.435 0.015 0
1.445 0.015 0
1.455 0.015 0
1.465 0.015 0
1.475 0.015 0
1.485 0.015 0
1.495 0.015 0
1.505 0.015 0
1.515 0.015 0
1.525 0.015 0
1.535 0.015 0
1.545 0.015 0
1.555 0.015 0
1.565 0.015 0
1.575 0.015 0
1.585 0.015 0
1.595 0.015 0
1.605 0.015 0
1.615 0.015 0
1.625 0.015 0
1.635 0.015 0
1.645 0.015 0
1.655 0.015 0
1.665 0.015 0
1.675 0.015 0
1.685 0.015 0
1.695 0.015 0
1.705 0.015 0
1.715 0.015 0
1.725 0.015 0
1.735 0.015 0
1.745 0.015 0
1.755 0.015 0
1.765 0.015 0
1.775 0.015 0
1.785 0.015 0
1.795 0.015 0
1.805 0.015 0
1.815 0.015 0
1.825 0.015 0
1.835 0.015 0
1.845 0.015 0
1.855 0.015 0
1.865 0.015 0
1.875 0.015 0
1.885 0.015 0
1.895 0.015 0
1.905 0.015 0
1.915 0.015 0
1.925 0.015 0
1.935 0.015 0
1.945 0.015 0
1.955 0.015 0
1.965 0.015 0
1.975 0.015 0
1.985 0.015 0
1.995 0.015 0
0.005 0.025 0
0.015 0.025 0
0.025 0.025 0
0.035 0.025 0
0.045 0.025 0
0.055 0.025 0
0.065 0.025 0
0.075 0.025 0
0.085 0.025 0
0.095 0.025 0
0.105 0.025 0
0.115 0.025 0
0.125 0.025 0
0.135 0.025 0
0.145 0.025 0
0.155 0.025 0
0.165 0.025 0
0.175 0.025 0
0.185 0.025 0
0.195 0.025 0
0.205 0.025 0
0.215 0.025 0
0.225 0.025 0
0.235 0.025 0
0.245 0.025 0
0.255 0.025 0
0.265 0.025 0
0.275 0.025 0
0.285 0.025 0
0.295 0.025 0
0.305 0.025 0
0.315 0.025 0
0.325 0.025 0
0.335 0.025 0
0.345 0.025 0
0.355 0.025 0
0.365 0.025 0
0.375 0.025 0
0.385 0.025 0
0.395 0.025 0
0.405 0.025 0
0.415 0.025 0
0.425 0.025 0
0.435 0.025 0
0.445 0.025 0
0.455 0.025 0
0.465 0.025 0
0.475 0.025 0
0.485 0.025 0
0.495 0.025 0
0.505 0.025 0
0.515 0.025 0
0.525 0.025 0
0.535 0.025 0
0.545 0.025 0
0.555 0.025 0
0.565 0.025 0
0.575 0.025 0
0.585 0.025 0
0.595 0.025 0
0.605 0.025 0
0.615 0.025 0
0.625 0.025 0
0.635 0.025 0
0.645 0.025 0
0.655 0.025 0
0.665 0.025 0
0.675 0.025 0
0.685 0.025 0
0.695 0.025 0
0.705 0.025 0
0.715 0.025 0
0.725 0.025 0
0.735 0.025 0
0.745 0.025 0
0.755 0.025 0
0.765 0.025 0
0.775 0.025 0
0.785 0.025 0
0.795 0.025 0
0.805 0.025 0
0.815 0.025 0
0.825 0.025 0
0.835 0.025 0
0.845 0.025 0
0.855 0.025 0
0.865 0.025 0
0.875 0.025 0
0.885 0.025 0
0.895 0.025 0
0.905 0.025 0
0.915 0.025 0
0.925 0.025 0
0.935 0.025 0
0.945 0.025 0
0.955 0.025 0
0.965 0.025 0
0.975 0.025 0
0.985 0.025 0
0.995 0.025 0
1.005 0.025 0
1.015 0.025 0
1.025 0.025 0
1.035 0.025 0
1.045 0.025 0
1.055 0.025 0
1.065 0.025 0
1.075 0.025 0
1.085 0.025 0
1.095 0.025 0
1.105 0.025 0
1.115 0.025 0
1.125 0.025 0
1.135 0.025 0
1.145 0.025 0
1.155 0.025 0
1.165 0.025 0
1.175 0.025 0
1.185 0.025 0
1.195 0.025 0
1.205 0.025 0
1.215 0.025 0
1.225 0.025 0
1.235 0.025 0
1.245 0.025 0
1.255 0.025 0
1.265 0.025 0
1.275 0.025 0
1.285 0.025 0
1.295 0.025 0
1.305 0.025 0
1.315 0.025 0
1.325 0.025 0
1.335 0.025 0
1.345 0.025 0
1.355 0.025 0
1.365 0.025 0
1.375 0.025 0
1.385 0.025 0
1.395 0.025 0
1.405 0.025 0
1.415 0.025 0
1.425 0.025 0
1.435 0.025 0
1.445 0.025 0
1.455 0.025 0
1.465 0.025 0
1.475 0.025 0
1.485 0.025 0
1.495 0.025 0
1.505 0.025 0
1.515 0.025 0
1.525 0.025 0
1.535 0.025 0
1.545 0.025 0
1.555 0.025 0
1.565 0.025 0
1.575 0.025 0
1.585 0.025 0
1.595 0.025 0
1.605 0.025 0
1.615 0.025 0
1.625 0.025 0
1.635 0.025 0
1.645 0.025 0
1.655 0.025 0
1.665 0.025 0
1.675 0.025 0
1.685 0.025 0
1.695 0.025 0
1.705 0.025 0
1.715 0.025 0
1.725 0.025 0
1.735 0.025 0
1.745 0.025 0
1.755 0.025 0
1.765 0.025 0
1.775 0.025 0
1.785 0.025 0
1.795 0.025 0
1.805 0.025 0
1.815 0.025 0
1.825 0.025 0
1.835 0.025 0
1.845 0.025 0
1.855 0.025 0
1.865 0.025 0
1.875 0.025 0
1.885 0.025 0
1.895 0.025 0
1.905 0.025 0
1.915 0.025 0
1.925 0.025 0
1.935 0.025 0
1.945 0.025 0
1.955 0.025 0
1.965 0.025 0
1.975 0.025 0
1.985 0.025 0
1.995 0.025 0
0.005 0.035 0
0.015 0.035 0
0.025 0.035 0
0.035 0.035 0
0.045 0.035 0
0.055 0.035 0
0.065 0.035 0
0.075 0.035 0
0.085 0.035 0
0.095 0.035 0
0.105 0.035 0
0.115 0.035 0
0.125 0.035 0
0.135 0.035 0
0.145 0.035 0
0.155 0.035 0
0.165 0.035 0
0.175 0.035 0
0.185 0.035 0
0.195 0.035 0
0.205 0.035 0
0.215 0.035 0
0.225 0.035 0
0.235 0.035 0
0.245 0.035 0
0.255 0.035 0
0.265 0.035 0
0.275 0.035 0
0.285 0.035 0
0.295 0.035 0
0.305 0.035 0
0.315 0.035 0
0.325 0.035 0
0.335 0.035 0
0.345 0.035 0
0.355 0.035 0
0.365 0.035 0
0.375 0.035 0
0.385 0.035 0
0.395 0.035 0
0.405 0.035 0
0.415 0.035 0
0.425 0.035 0
0.435 0.035 0
0.445 0.035 0
0.455 0.035 0
0.465 0.035 0
0.475 0.035 0
0.485 0.035 0
0.495 0.035 0
0.505 0.035 0
0.515 0.035 0
0.525 0.035 0
0.535 0.035 0
0.545 0.035 0
0.555 0.035 0
0.565 0.035 0
0.575 0.035 0
0.585 0.035 0
0.595 0.035 0
0.605 0.035 0
0.615 0.035 0
0.625 0.035 0
0.635 0.035 0
0.645 0.035 0
0.655 0.035 0
0.665 0.035 0
0.675 0.035 0
0.685 0.035 0
0.695 0.035 0
0.705 0.035 0
0.715 0.035 0
0.725 0.035 0
0.735 0.035 0
0.745 0.035 0
0.755 0.035 0
0.765 0.035 0
0.775 0.035 0
0.785 0.035 0
0.795 0.035 0
0.805 0.035 0
0.815 0.035 0
0.825 0.035 0
0.835 0.035 0
0.845 0.035 0
0.855 0.035 0
0.865 0.035 0
0.875 0.035 0
0.885 0.035 0
0.895 0.035 0
0.905 0.035 0
0.915 0.035 0
0.925 0.035 0
0.935 0.035 0
0.945 0.035 0
0.955 0.035 0
0.965 0.035 0
0.975 0.035 0
0.985 0.035 0
0.995 0.035 0
1.005 0.035 0
1.015 0.035 0
1.025 0.035 0
1.035 0.035 0
1.045 0.035 0
[...]
POINT_DATA 20000
VECTORS velocity float
0.999998 -9.83023e-08 0
0.999996 -2.19687e-07 0
0.999994 -4.19564e-07 0
0.999991 -6.21956e-07 0
0.999988 -9.937e-07 0
0.999983 -1.34203e-06 0
0.999976 -2.01947e-06 0
0.999968 -2.63096e-06 0
0.999957 -3.83981e-06 0
0.999942 -4.90635e-06 0
0.999923 -7.00851e-06 0
0.999899 -8.83041e-06 0
0.999868 -1.2384e-05 0
0.999828 -1.54136e-05 0
0.999779 -2.12469e-05 0
0.999717 -2.61389e-05 0
0.999641 -3.54333e-05 0
0.999547 -4.30955e-05 0
0.999433 -5.7466e-05 0
0.999296 -6.90987e-05 0
0.999132 -9.0654e-05 0
0.998938 -0.000107761 0
0.998709 -0.000139118 0
0.998445 -0.000163469 0
0.998138 -0.000207689 0
0.99779 -0.000241207 0
0.997394 -0.000301626 0
0.996953 -0.000346184 0
0.996462 -0.000426112 0
0.995926 -0.00048323 0
0.995343 -0.000585525 0
0.994722 -0.000655982 0
0.994062 -0.00078252 0
0.993376 -0.000865939 0
0.992668 -0.00101706 0
0.991955 -0.00111152 0
0.991243 -0.00128555 0
0.990552 -0.00138734 0
0.989893 -0.00158031 0
0.989288 -0.0016839 0
0.988747 -0.00188952 0
0.988294 -0.00198783 0
0.987939 -0.00219786 0
0.987705 -0.00228274 0
0.987598 -0.00248766 0
0.987638 -0.00255068 0
0.987829 -0.00274053 0
0.988182 -0.00277379 0
0.988698 -0.00293915 0
0.989382 -0.00293606 0
0.990227 -0.00306894 0
0.991232 -0.00302486 0
0.992385 -0.00311936 0
0.993676 -0.00303198 0
0.99509 -0.00308473 0
0.99661 -0.00295414 0
0.998218 -0.00296439 0
0.999892 -0.00279301 0
1.00161 -0.0027625 0
1.00335 -0.00255471 0
1.0051 -0.00248733 0
1.00681 -0.00224905 0
1.00849 -0.00215042 0
1.01009 -0.00188857 0
1.01161 -0.00176549 0
1.01301 -0.00148756 0
1.0143 -0.00134753 0
1.01544 -0.00106106 0
1.01644 -0.000911786 0
1.01727 -0.000624041 0
1.01793 -0.000473052 0
1.01841 -0.000190666 0
1.01871 -4.49856e-05 0
1.01884 0.000226235 0
1.01879 0.000360347 0
1.01856 0.00061557 0
1.01816 0.000732793 0
1.01761 0.00096823 0
1.01692 0.00106429 0
1.01608 0.00127721 0
1.01513 0.00134891 0
1.01407 0.0015376 0
1.01292 0.00158287 0
1.01169 0.00174654 0
1.01041 0.00176433 0
1.00909 0.00190303 0
1.00774 0.00189329 0
1.00639 0.00200777 0
1.00505 0.00197135 0
1.00373 0.00206292 0
1.00246 0.00200146 0
1.00123 0.00207189 0
1.00006 0.00198771 0
0.998973 0.00203905 0
0.997963 0.00193507 0
0.997042 0.00196959 0
0.996215 0.00184916 0
0.995486 0.0018692 0
0.994856 0.00173601 0
0.994326 0.00174393 0
0.993897 0.00160188 0
0.993564 0.00159999 0
0.993326 0.00145303 0
0.993176 0.00144349 0
0.993111 0.00129553 0
0.993121 0.00128035 0
0.993204 0.00113505 0
0.993348 0.00111606 0
0.993549 0.00097675 0
0.993794 0.000955543 0
0.994081 0.000825069 0
0.994396 0.000803016 0
0.994738 0.000683636 0
0.995093 0.000661865 0
0.995459 0.000555186 0
0.995826 0.000534579 0
0.996194 0.000441518 0
0.996551 0.000422717 0
0.996899 0.000343519 0
0.99723 0.000326936 0
0.997545 0.000261231 0
0.997837 0.00024707 0
0.99811 0.000193975 0
0.998359 0.000182259 0
0.998587 0.000140504 0
0.99879 0.000131111 0
0.998973 9.918e-05 0
0.999134 9.18848e-05 0
0.999276 6.81623e-05 0
0.999398 6.26747e-05 0
0.999505 4.55666e-05 0
0.999595 4.15707e-05 0
0.999671 2.96036e-05 0
0.999735 2.67883e-05 0
0.999789 1.86752e-05 0
0.999832 1.67572e-05 0
0.999868 1.14303e-05 0
0.999897 1.01672e-05 0
0.999921 6.78227e-06 0
0.999939 5.97877e-06 0
0.999954 3.89845e-06 0
0.999965 3.40492e-06 0
0.999974 2.16916e-06 0
0.999981 1.87661e-06 0
0.999986 1.16753e-06 0
0.99999 1.00025e-06 0
0.999992 6.07474e-07 0
0.999995 5.15253e-07 0
0.999996 3.05335e-07 0
0.999997 2.56342e-07 0
0.999998 1.48161e-07 0
0.999999 1.2309e-07 0
0.999999 6.93619e-08 0
0.999999 5.70101e-08 0
1 3.13085e-08 0
1 2.54527e-08 0
1 1.36172e-08 0
1 1.0947e-08 0
1 5.70328e-09 0
1 4.5328e-09 0
1 2.29883e-09 0
1 1.80583e-09 0
1 8.91174e-10 0
1 6.91755e-10 0
1 3.32065e-10 0
1 2.54639e-10 0
1 1.18855e-10 0
1 9.00154e-11 0
1 4.08384e-11 0
1 3.05388e-11 0
1 1.34618e-11 0
1 9.93687e-12 0
1 4.25435e-12 0
1 3.099e-12 0
1 1.2882e-12 0
1 9.25739e-13 0
1 3.73437e-13 0
1 2.64701e-13 0
1 1.03571e-13 0
1 7.2419e-14 0
1 2.74424e-14 0
1 1.89195e-14 0
1 6.94903e-15 0
1 4.7441e-15 0
1 1.6771e-15 0
1 1.1042e-15 0
1 3.93302e-16 0
1 2.17366e-16 0
1 6.98459e-17 0
1 3.89707e-17 0
1 8.14203e-18 0
1 7.09627e-18 0
1 8.15958e-19 0
1 3.76038e-18 0
1 1.64042e-19 0
1 3.44773e-18 0
1 3.33555e-19 0
1 3.13259e-18 0
1 8.82773e-19 0
1 2.27977e-18 0
0.999998 -2.85076e-07 0
0.999996 -6.9875e-07 0
0.999994 -1.2173e-06 0
0.999991 -1.97598e-06 0
0.999987 -2.88571e-06 0
0.999982 -4.25625e-06 0
0.999975 -5.87181e-06 0
0.999966 -8.3267e-06 0
0.999955 -1.11803e-05 0
0.999939 -1.54935e-05 0
0.999919 -2.04363e-05 0
0.999894 -2.78226e-05 0
0.999861 -3.61634e-05 0
0.99982 -4.84574e-05 0
0.999768 -6.21325e-05 0
0.999703 -8.19991e-05 0
0.999624 -0.000103759 0
0.999525 -0.000134912 0
0.999407 -0.000168496 0
0.999263 -0.00021588 0
0.999093 -0.000266131 0
0.99889 -0.000336019 0
0.998654 -0.000408872 0
0.998376 -0.000508773 0
0.99806 -0.000611047 0
0.997696 -0.000749365 0
0.997289 -0.000888269 0
0.996828 -0.00107362 0
0.996325 -0.00125594 0
0.995767 -0.00149611 0
0.995171 -0.00172707 0
0.994525 -0.00202765 0
0.993852 -0.00230957 0
0.993141 -0.00267241 0
0.992422 -0.0030033 0
0.991686 -0.00342509 0
0.990966 -0.00379755 0
0.990256 -0.00426878 0
0.989595 -0.00466943 0
0.988977 -0.00517409 0
0.98844 -0.00558378 0
0.987982 -0.00609996 0
0.98764 -0.006495 0
0.98741 -0.00699649 0
0.987325 -0.00735052 0
0.987378 -0.00780915 0
0.987598 -0.00809572 0
0.987974 -0.00848403 0
0.988525 -0.00867916 0
0.989239 -0.00897309 0
0.990124 -0.00905757 0
0.991165 -0.00923863 0
0.99236 -0.00919972 0
0.993691 -0.00925647 0
0.995146 -0.00908874 0
0.996707 -0.00901735 0
0.998354 -0.00872277 0
1.00007 -0.00852688 0
1.00182 -0.0081142 0
1.0036 -0.00780406 0
1.00537 -0.00728766 0
1.00712 -0.00687891 0
1.00881 -0.00627742 0
1.01044 -0.00578958 0
1.01197 -0.00512434 0
1.01339 -0.00457934 0
1.01469 -0.00387297 0
1.01584 -0.00329367 0
1.01683 -0.00256874 0
1.01767 -0.0019777 0
1.01832 -0.00125566 0
1.0188 -0.000674112 0
1.01909 2.55676e-05 0
1.01921 0.000578535 0
1.01914 0.00123898 0
1.01889 0.00174697 0
1.01848 0.00235429 0
1.01791 0.00280394 0
1.01719 0.0033474 0
1.01634 0.00372856 0
1.01536 0.00420059 0
1.01428 0.00450633 0
1.0131 0.00490242 0
1.01185 0.00512889 0
1.01055 0.00544733 0
1.0092 0.00559355 0
1.00783 0.00583517 0
1.00646 0.00590273 0
1.00509 0.0060705 0
1.00375 0.00606327 0
1.00245 0.00616196 0
1.00121 0.00608571 0
1.00002 0.00612153 0
0.998914 0.0059836 0
0.997888 0.0059638 0
0.996952 0.00577274 0
0.996111 0.00570533 0
0.995369 0.00547057 0
0.994728 0.00536397 0
0.99419 0.00509547 0
0.993751 0.00495823 0
0.993414 0.00466615 0
0.993168 0.00450671 0
0.993017 0.00420111 0
0.992947 0.00402754 0
0.99296 0.00371801 0
0.99304 0.0035378 0
0.993189 0.00323319 0
0.993388 0.00305306 0
0.993642 0.00276115 0
0.993929 0.00258692 0
0.994255 0.0023142 0
0.994597 0.0021506 0
0.994964 0.00190207 0
0.995332 0.00175271 0
0.995713 0.0015318 0
0.996082 0.0013991 0
0.996453 0.00120761 0
0.996803 0.00109286 0
0.997147 0.000931081 0
0.997465 0.000834522 0
0.99777 0.000701387 0
0.998045 0.000622348 0
0.998305 0.000515711 0
0.998536 0.000452814 0
0.998749 0.000369747 0
0.998934 0.000321123 0
0.999103 0.000258246 0
0.999247 0.000221754 0
0.999376 0.000175542 0
0.999484 0.000148975 0
0.999579 0.000116025 0
0.999657 9.72764e-05 0
0.999724 7.4502e-05 0
0.999779 6.16853e-05 0
0.999825 4.64365e-05 0
0.999862 3.79557e-05 0
0.999892 2.80724e-05 0
0.999916 2.26438e-05 0
0.999936 1.64472e-05 0
0.999951 1.30879e-05 0
0.999963 9.33195e-06 0
0.999972 7.32351e-06 0
0.99998 5.12402e-06 0
0.999985 3.96455e-06 0
0.999989 2.72086e-06 0
0.999992 2.07488e-06 0
0.999994 1.39626e-06 0
0.999996 1.04913e-06 0
0.999997 6.91991e-07 0
0.999998 5.12174e-07 0
0.999999 3.31002e-07 0
0.999999 2.41256e-07 0
0.999999 1.52715e-07 0
1 1.09582e-07 0
1 6.7917e-08 0
1 4.7965e-08 0
1 2.90972e-08 0
1 2.02193e-08 0
1 1.20013e-08 0
1 8.20343e-09 0
1 4.76261e-09 0
1 3.20141e-09 0
1 1.81731e-09 0
1 1.20098e-09 0
1 6.66363e-10 0
1 4.32819e-10 0
1 2.34649e-10 0
1 1.49754e-10 0
1 7.93002e-11 0
1 4.97138e-11 0
1 2.5704e-11 0
1 1.58241e-11 0
1 7.98573e-12 0
1 4.82633e-12 0
1 2.37644e-12 0
1 1.40955e-12 0
1 6.76934e-13 0
1 3.93954e-13 0
1 1.84436e-13 0
1 1.05265e-13 0
1 4.80269e-14 0
1 2.69073e-14 0
1 1.19461e-14 0
1 6.54409e-15 0
1 2.8199e-15 0
1 1.51184e-15 0
1 6.02574e-16 0
1 3.12135e-16 0
1 1.05191e-16 0
1 4.56926e-17 0
1 1.30934e-17 0
1 9.83157e-18 0
1 4.37851e-18 0
1 7.21059e-18 0
1 3.86838e-18 0
1 6.90562e-18 0
1 4.2057e-18 0
1 6.43052e-18 0
1 5.08939e-18 0
0.999998 -4.95726e-07 0
0.999996 -1.1698e-06 0
0.999993 -2.11571e-06 0
0.99999 -3.30806e-06 0
0.999985 -5.01047e-06 0
0.99998 -7.12575e-06 0
0.999972 -1.0182e-05 0
0.999963 -1.39412e-05 0
0.99995 -1.93593e-05 0
0.999933 -2.59425e-05 0
0.999911 -3.53343e-05 0
0.999883 -4.65899e-05 0
0.999847 -6.24344e-05 0
0.999803 -8.11494e-05 0
0.999745 -0.000107114 0
0.999676 -0.000137328 0
0.999588 -0.000178624 0
0.999482 -0.00022595 0
0.999352 -0.000289669 0
0.999199 -0.000361554 0
0.999012 -0.000456897 0
0.998795 -0.000562734 0
0.998537 -0.000701014 0
0.998242 -0.000851961 0
0.997898 -0.00104624 0
0.997512 -0.00125463 0
0.99707 -0.00151887 0
0.996585 -0.00179708 0
0.996039 -0.00214464 0
0.995455 -0.00250343 0
0.994811 -0.00294507 0
0.994139 -0.00339137 0
0.993416 -0.0039328 0
0.992681 -0.00446736 0
0.991914 -0.00510672 0
0.991158 -0.00572189 0
0.990396 -0.00644772 0
0.989677 -0.007126 0
0.988983 -0.00791619 0
0.988367 -0.00862994 0
0.987813 -0.00945207 0
0.987373 -0.0101648 0
0.98703 -0.0109781 0
0.986834 -0.011647 0
0.986768 -0.0124059 0
0.986872 -0.012986 0
0.987129 -0.0136442 0
0.98757 -0.0140925 0
0.988176 -0.0146076 0
0.988965 -0.0148874 0
0.989918 -0.0152248 0
0.991041 -0.015309 0
0.992312 -0.015445 0
0.993726 -0.0153181 0
0.995262 -0.0152413 0
0.996903 -0.0149004 0
0.998629 -0.0146119 0
1.00042 -0.0140659 0
1.00224 -0.0135787 0
1.00408 -0.012847 0
1.00592 -0.0121836 0
1.00772 -0.0112938 0
1.00946 -0.0104844 0
1.01113 -0.00947016 0
1.0127 -0.00854981 0
1.01414 -0.00744785 0
1.01546 -0.00645419 0
1.01662 -0.00530244 0
1.01763 -0.00427341 0
1.01846 -0.00310881 0
1.01911 -0.0020808 0
1.01957 -0.000937672 0
1.01985 5.59783e-05 0
1.01993 0.00114712 0
1.01984 0.0020772 0
1.01956 0.00309049 0
1.01912 0.00393266 0
1.01851 0.00484741 0
1.01774 0.00558258 0
1.01685 0.00638337 0
1.01582 0.00699781 0
1.01469 0.00767448 0
1.01347 0.00815968 0
1.01217 0.00870702 0
1.01081 0.00905938 0
1.00942 0.00947665 0
1.008 0.00969703 0
1.00658 0.00998748 0
1.00517 0.0100807 0
1.00379 0.0102509 0
1.00245 0.0102251 0
1.00116 0.0102845 0
0.999939 0.0101506 0
0.998795 0.0101107 0
0.997736 0.00988171 0
0.99677 0.00975562 0
0.995901 0.00944634 0
0.995134 0.00924819 0
0.994473 0.00887436 0
0.993914 0.00861881 0
0.993462 0.00819672 0
0.993108 0.0078985 0
0.992857 0.00744444 0
0.992694 0.00711788 0
0.992625 0.00664763 0
0.99263 0.00630629 0
0.992718 0.00583463 0
0.992862 0.00549091 0
0.993076 0.00503116 0
0.993328 0.00469599 0
0.993634 0.0042596 0
0.99396 0.00394212 0
0.994326 0.00353836 0
0.994695 0.00324578 0
0.995089 0.00288147 0
0.995473 0.00261893 0
0.99587 0.00229838 0
0.996245 0.00206892 0
0.996623 0.00179397 0
0.996971 0.00159868 0
0.997315 0.0013689 0
0.997625 0.00120712 0
0.997925 0.00102014 0
0.998189 0.000889758 0
0.998441 0.000741736 0
0.998658 0.000639587 0
0.998862 0.000525668 0
0.999035 0.000447929 0
0.999193 0.000362767 0
0.999326 0.000305341 0
0.999445 0.000243553 0
0.999543 0.00020241 0
0.99963 0.000158934 0
0.999699 0.000130366 0
0.999761 0.000100723 0
0.999809 8.15107e-05 0
0.99985 6.19384e-05 0
0.999882 4.94348e-05 0
0.999909 3.69296e-05 0
0.999929 2.9059e-05 0
0.999947 2.13324e-05 0
0.999959 1.65438e-05 0
0.99997 1.193e-05 0
0.999977 9.11554e-06 0
0.999983 6.45456e-06 0
0.999988 4.85762e-06 0
0.999991 3.37616e-06 0
0.999994 2.50186e-06 0
0.999995 1.70616e-06 0
0.999997 1.24456e-06 0
0.999998 8.32479e-07 0
0.999998 5.97589e-07 0
0.999999 3.91929e-07 0
0.999999 2.76787e-07 0
1 1.77929e-07 0
1 1.23587e-07 0
1 7.78429e-08 0
1 5.31637e-08 0
1 3.27988e-08 0
1 2.20194e-08 0
1 1.33013e-08 0
1 8.77555e-09 0
1 5.18872e-09 0
1 3.36322e-09 0
1 1.94576e-09 0
1 1.23874e-09 0
1 7.00984e-10 0
1 4.38204e-10 0
1 2.42464e-10 0
1 1.4879e-10 0
1 8.04695e-11 0
1 4.8461e-11 0
1 2.56082e-11 0
1 1.51305e-11 0
1 7.80927e-12 0
1 4.52555e-12 0
1 2.2805e-12 0
1 1.2959e-12 0
1 6.37324e-13 0
1 3.54988e-13 0
1 1.70286e-13 0
1 9.30105e-14 0
1 4.3457e-14 0
1 2.32593e-14 0
1 1.05884e-14 0
1 5.53588e-15 0
1 2.42534e-15 0
1 1.23155e-15 0
1 5.09266e-16 0
1 2.33546e-16 0
1 9.10706e-17 0
1 3.1721e-17 0
1 1.25808e-17 0
1 1.18602e-17 0
1 7.62586e-18 0
1 1.0459e-17 0
1 7.54319e-18 0
1 1.01622e-17 0
1 8.10578e-18 0
1 9.41939e-18 0
0.999998 -7.09137e-07 0
0.999995 -1.71603e-06 0
0.999992 -3.02596e-06 0
0.999988 -4.84875e-06 0
0.999983 -7.16362e-06 0
0.999977 -1.04315e-05 0
0.999968 -1.45512e-05 0
0.999957 -2.03791e-05 0
0.999943 -2.76537e-05 0
0.999923 -3.78641e-05 0
0.999899 -5.04496e-05 0
0.999867 -6.7895e-05 0
0.999827 -8.91008e-05 0
0.999775 -0.000118078 0
0.999712 -0.000152791 0
0.999631 -0.000199521 0
0.999535 -0.000254672 0
0.999414 -0.000327792 0
0.999271 -0.000412782 0
0.999096 -0.000523752 0
0.998892 -0.00065073 0
0.998645 -0.000813994 0
0.998364 -0.000997819 0
0.998031 -0.00123055 0
0.997658 -0.00148824 0
0.997223 -0.00180944 0
0.996746 -0.00215893 0
0.996202 -0.00258778 0
0.995618 -0.00304585 0
0.994966 -0.00359914 0
0.994282 -0.00417864 0
0.993536 -0.00486757 0
0.992774 -0.00557408 0
0.991965 -0.00640069 0
0.991164 -0.00722916 0
0.990341 -0.00818315 0
0.989556 -0.00911532 0
0.988781 -0.0101719 0
0.988082 -0.0111751 0
0.987429 -0.0122946 0
0.986891 -0.0133225 0
0.986439 -0.0144524 0
0.986137 -0.0154482 0
0.985956 -0.0165268 0
0.985954 -0.0174278 0
0.986103 -0.0183903 0
0.986447 -0.019134 0
0.986959 -0.0199184 0
0.987671 -0.0204487 0
0.988554 -0.0210019 0
0.989626 -0.0212742 0
0.990858 -0.0215566 0
0.992254 -0.0215417 0
0.993787 -0.0215303 0
0.995446 -0.0212159 0
0.997207 -0.0209054 0
0.999049 -0.0202966 0
1.00095 -0.0196984 0
1.00288 -0.0188158 0
1.00482 -0.0179562 0
1.00674 -0.0168335 0
1.00863 -0.0157507 0
1.01044 -0.0144313 0
1.01217 -0.0131717 0
1.01378 -0.0117054 0
1.01528 -0.0103204 0
1.01662 -0.00875987 0
1.0178 -0.00730271 0
1.01881 -0.00570048 0
1.01964 -0.0042232 0
1.02028 -0.00262929 0
1.02072 -0.00118053 0
1.02097 0.000359643 0
1.02102 0.00173643 0
1.02088 0.00318344 0
1.02056 0.00445122 0
1.02006 0.00577258 0
1.01939 0.00690145 0
1.01856 0.00807204 0
1.0176 0.0090396 0
1.01651 0.0100417 0
1.0153 0.010833 0
1.01401 0.0116561 0
1.01264 0.0122631 0
1.01121 0.0129033 0
1.00974 0.0133246 0
1.00826 0.0137839 0
1.00676 0.014024 0
1.00529 0.0143096 0
1.00384 0.0143777 0
1.00243 0.0145012 0
1.00109 0.0144109 0
0.999809 0.0143871 0
0.998611 0.0141553 0
0.997504 0.0140019 0
0.996492 0.013648 0
0.995582 0.0133842 0
0.99478 0.0129294 0
0.994084 0.0125758 0
0.993501 0.0120423 0
0.993021 0.0116198 0
0.992654 0.01103 0
0.992381 0.0105592 0
0.992216 0.00993521 0
0.992131 0.00943602 0
0.992144 0.0087988 0
0.992222 0.00828966 0
0.992384 0.00765852 0
0.992592 0.00715601 0
0.99287 0.00654798 0
0.993174 0.00606636 0
0.993533 0.00549567 0
0.9939 0.00504655 0
0.994307 0.00452429 0
0.994705 0.00411638 0
0.99513 0.00365028 0
0.995532 0.00328932 0
0.995949 0.00288369 0
0.996333 0.0025725 0
0.996722 0.00222844 0
0.997073 0.00196715 0
0.997421 0.00168288 0
0.997728 0.00146933 0
0.998027 0.00124071 0
0.998285 0.00107095 0
0.998533 0.000892112 0
0.998743 0.000760938 0
0.99894 0.000624991 0
0.999104 0.000526555 0
0.999257 0.000426205 0
0.999381 0.000354522 0
0.999494 0.000282653 0
0.999584 0.000232034 0
0.999666 0.000182134 0
0.99973 0.000147501 0
0.999786 0.000113937 0
0.99983 9.09928e-05 0
0.999867 6.91382e-05 0
0.999896 5.4431e-05 0
0.99992 4.06645e-05 0
0.999939 3.15485e-05 0
0.999954 2.31649e-05 0
0.999965 1.77047e-05 0
0.999974 1.27718e-05 0
0.999981 9.61316e-06 0
0.999986 6.81048e-06 0
0.99999 5.0468e-06 0
0.999993 3.51005e-06 0
0.999995 2.56005e-06 0
0.999996 1.74733e-06 0
0.999997 1.25395e-06 0
0.999998 8.3962e-07 0
0.999999 5.92704e-07 0
0.999999 3.89189e-07 0
0.999999 2.70175e-07 0
1 1.73915e-07 0
1 1.18695e-07 0
1 7.48766e-08 0
1 5.02268e-08 0
1 3.10398e-08 0
1 2.04591e-08 0
1 1.23819e-08 0
1 8.01717e-09 0
1 4.74998e-09 0
1 3.02045e-09 0
1 1.7513e-09 0
1 1.09339e-09 0
1 6.2019e-10 0
1 3.80063e-10 0
1 2.10822e-10 0
1 1.26779e-10 0
1 6.87474e-11 0
1 4.05575e-11 0
1 2.14917e-11 0
1 1.24351e-11 0
1 6.43688e-12 0
1 3.65174e-12 0
1 1.8458e-12 0
1 1.02642e-12 0
1 5.06395e-13 0
1 2.75992e-13 0
1 1.32765e-13 0
1 7.09216e-14 0
1 3.32599e-14 0
1 1.73971e-14 0
1 7.93289e-15 0
1 4.01232e-15 0
1 1.77748e-15 0
1 8.41471e-16 0
1 3.34597e-16 0
1 1.57657e-16 0
1 5.26998e-17 0
1 2.43762e-17 0
1 1.32166e-17 0
1 1.42248e-17 0
1 1.08936e-17 0
1 1.35035e-17 0
1 1.11303e-17 0
1 1.31138e-17 0
1 1.19505e-17 0
0.999997 -9.62228e-07 0
0.999994 -2.28283e-06 0
0.99999 -4.10344e-06 0
0.999986 -6.44722e-06 0
0.99998 -9.70298e-06 0
0.999973 -1.38608e-05 0
0.999963 -1.96793e-05 0
0.99995 -2.70569e-05 0
0.999932 -3.7337e-05 0
0.99991 -5.02297e-05 0
0.999881 -6.79987e-05 0
0.999845 -8.99924e-05 0
0.999797 -0.00011989 0
0.999739 -0.000156376 0
0.999664 -0.000205244 0
0.999574 -0.000264013 0
0.999459 -0.000341533 0
0.999324 -0.000433373 0
0.999156 -0.000552661 0
0.998961 -0.000691835 0
0.998721 -0.00086981 0
0.998448 -0.00107422 0
0.99812 -0.00133154 0
0.997752 -0.00162231 0
0.997318 -0.0019826 0
0.996841 -0.00238291 0
0.996291 -0.00287101 0
0.995698 -0.00340383 0
0.995027 -0.00404299 0
0.994321 -0.00472783 0
0.993542 -0.00553584 0
0.992741 -0.00638459 0
0.99188 -0.00736927 0
0.991023 -0.00838179 0
0.990126 -0.00953655 0
0.989266 -0.0106967 0
0.988399 -0.0119971 0
0.987606 -0.0132705 0
0.986846 -0.0146729 0
0.986202 -0.0160066 0
0.985633 -0.0174494 0
0.98522 -0.0187749 0
0.984923 -0.0201828 0
0.984815 -0.0214214 0
0.984856 -0.0227118 0
0.985109 -0.0237819 0
0.985534 -0.0248729 0
0.986177 -0.025698 0
0.987002 -0.0265162 0
0.988036 -0.027032 0
0.989246 -0.0275195 0
0.990641 -0.0276796 0
0.99219 -0.0277982 0
0.993889 -0.0275776 0
0.995707 -0.0273116 0
0.997627 -0.0267075 0
0.999624 -0.0260631 0
1.00167 -0.0250936 0
1.00374 -0.0240973 0
1.00581 -0.0227988 0
1.00785 -0.0214938 0
1.00983 -0.0199172 0
1.01175 -0.0183591 0
1.01355 -0.016565 0
1.01523 -0.0148177 0
1.01677 -0.0128727 0
1.01815 -0.0110039 0
1.01936 -0.00897584 0
1.02038 -0.00705345 0
1.0212 -0.00500833 0
1.02182 -0.00309689 0
1.02224 -0.00109601 0
1.02245 0.000745649 0
1.02245 0.00264798 0
1.02226 0.00436863 0
1.02187 0.00612653 0
1.02129 0.00768381 0
1.02054 0.00926066 0
1.01963 0.0106217 0
1.01858 0.0119904 0
1.0174 0.0131319 0
1.0161 0.014275 0
1.01471 0.0151829 0
1.01324 0.0160915 0
1.01172 0.0167606 0
1.01016 0.0174341 0
1.00857 0.017867 0
1.00699 0.0183118 0
1.00542 0.0185177 0
1.00389 0.0187464 0
1.0024 0.0187406 0
1.00098 0.0187704 0
0.999623 0.0185727 0
0.998358 0.0184251 0
0.997184 0.0180589 0
0.996114 0.0177578 0
0.995151 0.0172492 0
0.994299 0.0168207 0
0.993564 0.0161974 0
0.99294 0.0156682 0
0.992436 0.0149587 0
0.992036 0.0143556 0
0.991753 0.0135883 0
0.991563 0.0129377 0
0.991483 0.0121397 0
0.991479 0.0114663 0
0.991575 0.0106633 0
0.991726 0.00998975 0
0.991964 0.0092048 0
0.992236 0.00855096 0
0.992581 0.00780384 0
0.992939 0.00718646 0
0.993354 0.00649324 0
0.993764 0.00592542 0
0.994215 0.0052981 0
0.994646 0.00478913 0
0.995103 0.00423544 0
0.995528 0.00379076 0
0.995967 0.00331424 0
0.996366 0.00293569 0
0.996769 0.00253601 0
0.997127 0.00222215 0
0.997482 0.00189568 0
0.997791 0.00164241 0
0.998092 0.00138288 0
0.998348 0.00118411 0
0.998595 0.000983509 0
0.9988 0.000831921 0
0.998995 0.000681272 0
0.999154 0.000569019 0
0.999302 0.000459196 0
0.99942 0.000378549 0
0.999529 0.000300895 0
0.999615 0.000244726 0
0.999692 0.000191509 0
0.999752 0.000153613 0
0.999805 0.000118292 0
0.999845 9.35419e-05 0
0.99988 7.08549e-05 0
0.999907 5.52177e-05 0
0.999929 4.1124e-05 0
0.999945 3.15731e-05 0
0.999959 2.31107e-05 0
0.999969 1.74747e-05 0
0.999977 1.25665e-05 0
0.999983 9.35519e-06 0
0.999988 6.60703e-06 0
0.999991 4.84121e-06 0
0.999994 3.35657e-06 0