# vtk DataFile Version 3.0
Flow field at step 1750
ASCII
DATASET STRUCTURED_GRID
DIMENSIONS 200 100 1
POINTS 20000 float
0.005 0.005 0
0.015 0.005 0
0.025 0.005 0
0.035 0.005 0
0.045 0.005 0
0.055 0.005 0
0.065 0.005 0
0.075 0.005 0
0.085 0.005 0
0.095 0.005 0
0.105 0.005 0
0.115 0.005 0
0.125 0.005 0
0.135 0.005 0
0.145 0.005 0
0.155 0.005 0
0.165 0.005 0
0.175 0.005 0
0.185 0.005 0
0.195 0.005 0
0.205 0.005 0
0.215 0.005 0
0.225 0.005 0
0.235 0.005 0
0.245 0.005 0
0.255 0.005 0
0.265 0.005 0
0.275 0.005 0
0.285 0.005 0
0.295 0.005 0
0.305 0.005 0
0.315 0.005 0
0.325 0.005 0
0.335 0.005 0
0.345 0.005 0
0.355 0.005 0
0.365 0.005 0
0.375 0.005 0
0.385 0.005 0
0.395 0.005 0
0.405 0.005 0
0.415 0.005 0
0.425 0.005 0
0.435 0.005 0
0.445 0.005 0
0.455 0.005 0
0.465 0.005 0
0.475 0.005 0
0.485 0.005 0
0.495 0.005 0
0.505 0.005 0
0.515 0.005 0
0.525 0.005 0
0.535 0.005 0
0.545 0.005 0
0.555 0.005 0
0.565 0.005 0
0.575 0.005 0
0.585 0.005 0
0.595 0.005 0
0.605 0.005 0
0.615 0.005 0
0.625 0.005 0
0.635 0.005 0
0.645 0.005 0
0.655 0.005 0
0.665 0.005 0
0.675 0.005 0
0.685 0.005 0
0.695 0.005 0
0.705 0.005 0
0.715 0.005 0
0.725 0.005 0
0.735 0.005 0
0.745 0.005 0
0.755 0.005 0
0.765 0.005 0
0.775 0.005 0
0.785 0.005 0
0.795 0.005 0
0.805 0.005 0
0.815 0.005 0
0.825 0.005 0
0.835 0.005 0
0.845 0.005 0
0.855 0.005 0
0.865 0.005 0
0.875 0.005 0
0.885 0.005 0
0.895 0.005 0
0.905 0.005 0
0.915 0.005 0
0.925 0.005 0
0.935 0.005 0
0.945 0.005 0
0.955 0.005 0
0.965 0.005 0
0.975 0.005 0
0.985 0.005 0
0.995 0.005 0
1.005 0.005 0
1.015 0.005 0
1.025 0.005 0
1.035 0.005 0
1.045 0.005 0
1.055 0.005 0
1.065 0.005 0
1.075 0.005 0
1.085 0.005 0
1.095 0.005 0
1.105 0.005 0
1.115 0.005 0
1.125 0.005 0
1.135 0.005 0
1.145 0.005 0
1.155 0.005 0
1.165 0.005 0
1.175 0.005 0
1.185 0.005 0
1.195 0.005 0
1.205 0.005 0
1.215 0.005 0
1.225 0.005 0
1.235 0.005 0
1.245 0.005 0
1.255 0.005 0
1.265 0.005 0
1.275 0.005 0
1.285 0.005 0
1.295 0.005 0
1.305 0.005 0
1.315 0.005 0
1.325 0.005 0
1.335 0.005 0
1.345 0.005 0
1.355 0.005 0
1.365 0.005 0
1.375 0.005 0
1.385 0.005 0
1.395 0.005 0
1.405 0.005 0
1.415 0.005 0
1.425 0.005 0
1.435 0.005 0
1.445 0.005 0
1.455 0.005 0
1.465 0.005 0
1.475 0.005 0
1.485 0.005 0
1.495 0.005 0
1.505 0.005 0
1.515 0.005 0
1.525 0.005 0
1.535 0.005 0
1.545 0.005 0
1.555 0.005 0
1.565 0.005 0
1.575 0.005 0
1.585 0.005 0
1.595 0.005 0
1.605 0.005 0
1.615 0.005 0
1.625 0.005 0
1.635 0.005 0
1.645 0.005 0
1.655 0.005 0
1.665 0.005 0
1.675 0.005 0
1.685 0.005 0
1.695 0.005 0
1.705 0.005 0
1.715 0.005 0
1.725 0.005 0
1.735 0.005 0
1.745 0.005 0
1.755 0.005 0
1.765 0.005 0
1.775 0.005 0
1.785 0.005 0
1.795 0.005 0
1.805 0.005 0
1.815 0.005 0
1.825 0.005 0
1.835 0.005 0
1.845 0.005 0
1.855 0.005 0
1.865 0.005 0
1.875 0.005 0
1.885 0.005 0
1.895 0.005 0
1.905 0.005 0
1.915 0.005 0
1.925 0.005 0
1.935 0.005 0
1.945 0.005 0
1.955 0.005 0
1.965 0.005 0
1.975 0.005 0
1.985 0.005 0
1.995 0.005 0
0.005 0.015 0
0.015 0.015 0
0.025 0.015 0
0.035 0.015 0
0.045 0.015 0
0.055 0.015 0
0.065 0.015 0
0.075 0.015 0
0.085 0.015 0
0.095 0.015 0
0.105 0.015 0
0.115 0.015 0
0.125 0.015 0
0.135 0.015 0
0.145 0.015 0
0.155 0.015 0
0.165 0.015 0
0.175 0.015 0
0.185 0.015 0
0.195 0.015 0
0.205 0.015 0
0.215 0.015 0
0.225 0.015 0
0.235 0.015 0
0.245 0.015 0
0.255 0.015 0
0.265 0.015 0
0.275 0.015 0
0.285 0.015 0
0.295 0.015 0
0.305 0.015 0
0.315 0.015 0
0.325 0.015 0
0.335 0.015 0
0.345 0.015 0
0.355 0.015 0
0.365 0.015 0
0.375 0.015 0
0.385 0.015 0
0.395 0.015 0
0.405 0.015 0
0.415 0.015 0
0.425 0.015 0
0.435 0.015 0
0.445 0.015 0
0.455 0.015 0
0.465 0.015 0
0.475 0.015 0
0.485 0.015 0
0.495 0.015 0
0.505 0.015 0
0.515 0.015 0
0.525 0.015 0
0.535 0.015 0
0.545 0.015 0
0.555 0.015 0
0.565 0.015 0
0.575 0.015 0
0.585 0.015 0
0.595 0.015 0
0.605 0.015 0
0.615 0.015 0
0.625 0.015 0
0.635 0.015 0
0.645 0.015 0
0.655 0.015 0
0.665 0.015 0
0.675 0.015 0
0.685 0.015 0
0.695 0.015 0
0.705 0.015 0
0.715 0.015 0
0.725 0.015 0
0.735 0.015 0
0.745 0.015 0
0.755 0.015 0
0.765 0.015 0
0.775 0.015 0
0.785 0.015 0
0.795 0.015 0
0.805 0.015 0
0.815 0.015 0
0.825 0.015 0
0.835 0.015 0
0.845 0.015 0
0.855 0.015 0
0.865 0.015 0
0.875 0.015 0
0.885 0.015 0
0.895 0.015 0
0.905 0.015 0
0.915 0.015 0
0.925 0.015 0
0.935 0.015 0
0.945 0.015 0
0.955 0.015 0
0.965 0.015 0
0.975 0.015 0
0.985 0.015 0
0.995 0.015 0
1.005 0.015 0
1.015 0.015 0
1.025 0.015 0
1.035 0.015 0
1.045 0.015 0
1.055 0.015 0
1.065 0.015 0
1.075 0.015 0
1.085 0.015 0
1.095 0.015 0
1.105 0.015 0
1.115 0.015 0
1.125 0.015 0
1.135 0.015 0
1.145 0.015 0
1.155 0.015 0
1.165 0.015 0
1.175 0.015 0
1.185 0.015 0
1.195 0.015 0
1.205 0.015 0
1.215 0.015 0
1.225 0.015 0
1.235 0.015 0
1.245 0.015 0
1.255 0.015 0
1.265 0.015 0
1.275 0.015 0
1.285 0.015 0
1.295 0.015 0
1.305 0.015 0
1.315 0.015 0
1.325 0.015 0
1.335 0.015 0
1.345 0.015 0
1.355 0.015 0
1.365 0.015 0
1.375 0.015 0
1.385 0.015 0
1.395 0.015 0
1.405 0.015 0
1.415 0.015 0
1.425 0.015 0
1.435 0.015 0
1.445 0.015 0
1.455 0.015 0
1.465 0.015 0
1.475 0.015 0
1.485 0.015 0
1.495 0.015 0
1.505 0.015 0
1.515 0.015 0
1.525 0.015 0
1.535 0.015 0
1.545 0.015 0
1.555 0.015 0
1.565 0.015 0
1.575 0.015 0
1.585 0.015 0
1.595 0.015 0
1.605 0.015 0
1.615 0.015 0
1.625 0.015 0
1.635 0.015 0
1.645 0.015 0
1.655 0.015 0
1.665 0.015 0
1.675 0.015 0
1.685 0.015 0
1.695 0.015 0
1.705 0.015 0
1.715 0.015 0
1.725 0.015 0
1.735 0.015 0
1.745 0.015 0
1.755 0.015 0
1.765 0.015 0
1.775 0.015 0
1.785 0.015 0
1.795 0.015 0
1.805 0.015 0
1.815 0.015 0
1.825 0.015 0
1.835 0.015 0
1.845 0.015 0
1.855 0.015 0
1.865 0.015 0
1.875 0.015 0
1.885 0.015 0
1.895 0.015 0
1.905 0.015 0
1.915 0.015 0
1.925 0.015 0
1.935 0.015 0
1.945 0.015 0
1.955 0.015 0
1.965 0.015 0
1.975 0.015 0
1.985 0.015 0
1.995 0.015 0
0.005 0.025 0
0.015 0.025 0
0.025 0.025 0
0.035 0.025 0
0.045 0.025 0
0.055 0.025 0
0.065 0.025 0
0.075 0.025 0
0.085 0.025 0
0.095 0.025 0
0.105 0.025 0
0.115 0.025 0
0.125 0.025 0
0.135 0.025 0
0.145 0.025 0
0.155 0.025 0
0.165 0.025 0
0.175 0.025 0
0.185 0.025 0
0.195 0.025 0
0.205 0.025 0
0.215 0.025 0
0.225 0.025 0
0.235 0.025 0
0.245 0.025 0
0.255 0.025 0
0.265 0.025 0
0.275 0.025 0
0.285 0.025 0
0.295 0.025 0
0.305 0.025 0
0.315 0.025 0
0.325 0.025 0
0.335 0.025 0
0.345 0.025 0
0.355 0.025 0
0.365 0.025 0
0.375 0.025 0
0.385 0.025 0
0.395 0.025 0
0.405 0.025 0
0.415 0.025 0
0.425 0.025 0
0.435 0.025 0
0.445 0.025 0
0.455 0.025 0
0.465 0.025 0
0.475 0.025 0
0.485 0.025 0
0.495 0.025 0
0.505 0.025 0
0.515 0.025 0
0.525 0.025 0
0.535 0.025 0
0.545 0.025 0
0.555 0.025 0
0.565 0.025 0
0.575 0.025 0
0.585 0.025 0
0.595 0.025 0
0.605 0.025 0
0.615 0.025 0
0.625 0.025 0
0.635 0.025 0
0.645 0.025 0
0.655 0.025 0
0.665 0.025 0
0.675 0.025 0
0.685 0.025 0
0.695 0.025 0
0.705 0.025 0
0.715 0.025 0
0.725 0.025 0
0.735 0.025 0
0.745 0.025 0
0.755 0.025 0
0.765 0.025 0
0.775 0.025 0
0.785 0.025 0
0.795 0.025 0
0.805 0.025 0
0.815 0.025 0
0.825 0.025 0
0.835 0.025 0
0.845 0.025 0
0.855 0.025 0
0.865 0.025 0
0.875 0.025 0
0.885 0.025 0
0.895 0.025 0
0.905 0.025 0
0.915 0.025 0
0.925 0.025 0
0.935 0.025 0
0.945 0.025 0
0.955 0.025 0
0.965 0.025 0
0.975 0.025 0
0.985 0.025 0
0.995 0.025 0
1.005 0.025 0
1.015 0.025 0
1.025 0.025 0
1.035 0.025 0
1.045 0.025 0
1.055 0.025 0
1.065 0.025 0
1.075 0.025 0
1.085 0.025 0
1.095 0.025 0
1.105 0.025 0
1.115 0.025 0
1.125 0.025 0
1.135 0.025 0
1.145 0.025 0
1.155 0.025 0
1.165 0.025 0
1.175 0.025 0
1.185 0.025 0
1.195 0.025 0
1.205 0.025 0
1.215 0.025 0
1.225 0.025 0
1.235 0.025 0
1.245 0.025 0
1.255 0.025 0
1.265 0.025 0
1.275 0.025 0
1.285 0.025 0
1.295 0.025 0
1.305 0.025 0
1.315 0.025 0
1.325 0.025 0
1.335 0.025 0
1.345 0.025 0
1.355 0.025 0
1.365 0.025 0
1.375 0.025 0
1.385 0.025 0
1.395 0.025 0
1.405 0.025 0
1.415 0.025 0
1.425 0.025 0
1.435 0.025 0
1.445 0.025 0
1.455 0.025 0
1.465 0.025 0
1.475 0.025 0
1.485 0.025 0
1.495 0.025 0
1.505 0.025 0
1.515 0.025 0
1.525 0.025 0
1.535 0.025 0
1.545 0.025 0
1.555 0.025 0
1.565 0.025 0
1.575 0.025 0
1.585 0.025 0
1.595 0.025 0
1.605 0.025 0
1.615 0.025 0
1.625 0.025 0
1.635 0.025 0
1.645 0.025 0
1.655 0.025 0
1.665 0.025 0
1.675 0.025 0
1.685 0.025 0
1.695 0.025 0
1.705 0.025 0
1.715 0.025 0
1.725 0.025 0
1.735 0.025 0
1.745 0.025 0
1.755 0.025 0
1.765 0.025 0
1.775 0.025 0
1.785 0.025 0
1.795 0.025 0
1.805 0.025 0
1.815 0.025 0
1.825 0.025 0
1.835 0.025 0
1.845 0.025 0
1.855 0.025 0
1.865 0.025 0
1.875 0.025 0
1.885 0.025 0
1.895 0.025 0
1.905 0.025 0
1.915 0.025 0
1.925 0.025 0
1.935 0.025 0
1.945 0.025 0
1.955 0.025 0
1.965 0.025 0
1.975 0.025 0
1.985 0.025 0
1.995 0.025 0
0.005 0.035 0
0.015 0.035 0
0.025 0.035 0
0.035 0.035 0
0.045 0.035 0
0.055 0.035 0
0.065 0.035 0
0.075 0.035 0
0.085 0.035 0
0.095 0.035 0
0.105 0.035 0
0.115 0.035 0
0.125 0.035 0
0.135 0.035 0
0.145 0.035 0
0.155 0.035 0
0.165 0.035 0
0.175 0.035 0
0.185 0.035 0
0.195 0.035 0
0.205 0.035 0
0.215 0.035 0
0.225 0.035 0
0.235 0.035 0
0.245 0.035 0
0.255 0.035 0
0.265 0.035 0
0.275 0.035 0
0.285 0.035 0
0.295 0.035 0
0.305 0.035 0
0.315 0.035 0
0.325 0.035 0
0.335 0.035 0
0.345 0.035 0
0.355 0.035 0
0.365 0.035 0
0.375 0.035 0
0.385 0.035 0
0.395 0.035 0
0.405 0.035 0
0.415 0.035 0
0.425 0.035 0
0.435 0.035 0
0.445 0.035 0
0.455 0.035 0
0.465 0.035 0
0.475 0.035 0
0.485 0.035 0
0.495 0.035 0
0.505 0.035 0
0.515 0.035 0
0.525 0.035 0
0.535 0.035 0
0.545 0.035 0
0.555 0.035 0
0.565 0.035 0
0.575 0.035 0
0.585 0.035 0
0.595 0.035 0
0.605 0.035 0
0.615 0.035 0
0.625 0.035 0
0.635 0.035 0
0.645 0.035 0
0.655 0.035 0
0.665 0.035 0
0.675 0.035 0
0.685 0.035 0
0.695 0.035 0
0.705 0.035 0
0.715 0.035 0
0.725 0.035 0
0.735 0.035 0
0.745 0.035 0
0.755 0.035 0
0.765 0.035 0
0.775 0.035 0
0.785 0.035 0
0.795 0.035 0
0.805 0.035 0
0.815 0.035 0
0.825 0.035 0
0.835 0.035 0
0.845 0.035 0
0.855 0.035 0
0.865 0.035 0
0.875 0.035 0
0.885 0.035 0
0.895 0.035 0
0.905 0.035 0
0.915 0.035 0
0.925 0.035 0
0.935 0.035 0
0.945 0.035 0
0.955 0.035 0
0.965 0.035 0
0.975 0.035 0
0.985 0.035 0
0.995 0.035 0
1.005 0.035 0
1.015 0.035 0
1.025 0.035 0
1.035 0.035 0
1.045 0.035 0
[...]
POINT_DATA 20000
VECTORS velocity float
0.95101 -2.41919e-05 0
0.909966 -5.42637e-05 0
0.87602 -8.86832e-05 0
0.848244 -0.000126395 0
0.825727 -0.000166351 0
0.807629 -0.000208135 0
0.793205 -0.000251029 0
0.781815 -0.000295093 0
0.772918 -0.000339771 0
0.766066 -0.000385446 0
0.760892 -0.000431609 0
0.757097 -0.000478854 0
0.754438 -0.000526647 0
0.752723 -0.000575718 0
0.751796 -0.000625475 0
0.751535 -0.000676727 0
0.751843 -0.00072881 0
0.752644 -0.000782575 0
0.753879 -0.000837278 0
0.755501 -0.000893779 0
0.757476 -0.00095126 0
0.759776 -0.00101056 0
0.762381 -0.00107079 0
0.765278 -0.00113274 0
0.768456 -0.00119545 0
0.771908 -0.00125966 0
0.775631 -0.00132434 0
0.779622 -0.00139012 0
0.78388 -0.00145594 0
0.788406 -0.00152231 0
0.793201 -0.00158813 0
0.798268 -0.00165379 0
0.803608 -0.00171813 0
0.809222 -0.00178145 0
0.815112 -0.00184254 0
0.82128 -0.00190158 0
0.827726 -0.00195737 0
0.834449 -0.00200997 0
0.841448 -0.00205819 0
0.848721 -0.00210201 0
0.856265 -0.00214027 0
0.864074 -0.00217292 0
0.872144 -0.00219886 0
0.880467 -0.00221802 0
0.889034 -0.00222941 0
0.897836 -0.002233 0
0.906861 -0.00222792 0
0.916097 -0.00221424 0
0.92553 -0.00219123 0
0.935143 -0.00215909 0
0.944922 -0.00211729 0
0.954848 -0.00206617 0
0.964903 -0.00200539 0
0.975066 -0.00193548 0
0.985317 -0.00185629 0
0.995635 -0.00176853 0
1.006 -0.00167224 0
1.01638 -0.00156832 0
1.02677 -0.00145697 0
1.03713 -0.00133925 0
1.04744 -0.00121548 0
1.05768 -0.00108687 0
1.06783 -0.000953838 0
1.07786 -0.00081768 0
1.08775 -0.000678875 0
1.09748 -0.000538779 0
1.10702 -0.000397877 0
1.11635 -0.000257549 0
1.12545 -0.000118244 0
1.13431 1.86706e-05 0
1.14289 0.00015282 0
1.15119 0.000282889 0
1.15918 0.000408605 0
1.16685 0.000528735 0
1.17417 0.000643138 0
1.18115 0.000750691 0
1.18775 0.000851397 0
1.19397 0.000944271 0
1.1998 0.00102947 0
1.20522 0.00110616 0
1.21023 0.00117465 0
1.21482 0.00123428 0
1.21899 0.00128551 0
1.22272 0.00132787 0
1.22603 0.00136191 0
1.2289 0.00138739 0
1.23134 0.00140494 0
1.23335 0.00141452 0
1.23494 0.00141682 0
1.23612 0.001412 0
1.23689 0.00140075 0
1.23727 0.00138345 0
1.23726 0.00136072 0
1.23689 0.00133316 0
1.23616 0.00130127 0
1.23511 0.00126584 0
1.23374 0.0012272 0
1.23208 0.00118636 0
1.23014 0.00114337 0
1.22796 0.00109947 0
1.22555 0.00105438 0
1.22294 0.00100957 0
1.22015 0.000964386 0
1.21721 0.00092054 0
1.21413 0.000876933 0
1.21094 0.000835567 0
1.20767 0.00079485 0
1.20432 0.000757104 0
1.20092 0.000720207 0
1.1975 0.000686844 0
1.19406 0.000654332 0
1.19062 0.000625769 0
1.18719 0.000597881 0
1.18379 0.000574231 0
1.18043 0.000550933 0
1.17712 0.000532065 0
1.17386 0.000513109 0
1.17067 0.000498711 0
1.16754 0.000483696 0
1.16448 0.000473331 0
1.1615 0.000461759 0
1.1586 0.000454923 0
1.15577 0.000446249 0
1.15302 0.000442409 0
1.15036 0.000436083 0
1.14776 0.000434718 0
1.14525 0.000430208 0
1.14281 0.000430832 0
1.14043 0.000427651 0
1.13813 0.000429832 0
1.13589 0.000427548 0
1.13372 0.000430912 0
1.1316 0.000429156 0
1.12954 0.000433397 0
1.12754 0.00043186 0
1.12558 0.000436737 0
1.12367 0.000435171 0
1.1218 0.000440502 0
1.11998 0.000438715 0
1.11818 0.000444373 0
1.11643 0.000442221 0
1.1147 0.000448127 0
1.11301 0.000445508 0
1.11134 0.000451621 0
1.1097 0.000448467 0
1.10808 0.000454779 0
1.10648 0.00045105 0
1.1049 0.000457577 0
1.10333 0.000453254 0
1.10179 0.00046003 0
1.10025 0.000455109 0
1.09874 0.00046218 0
1.09723 0.000456667 0
1.09573 0.000464084 0
1.09425 0.000457992 0
1.09278 0.000465808 0
1.09131 0.000459153 0
1.08986 0.000467418 0
1.08841 0.000460216 0
1.08697 0.00046897 0
1.08554 0.000461237 0
1.08412 0.000470514 0
1.08271 0.00046226 0
1.0813 0.000472079 0
1.07991 0.000463312 0
1.07852 0.000473678 0
1.07714 0.000464401 0
1.07577 0.000475299 0
1.07441 0.000465508 0
1.07305 0.000476908 0
1.07171 0.000466594 0
1.07038 0.000478443 0
1.06906 0.000467589 0
1.06775 0.000479812 0
1.06645 0.000468396 0
1.06517 0.000480897 0
1.0639 0.000468886 0
1.06265 0.000481544 0
1.06141 0.000468898 0
1.06019 0.00048157 0
1.05899 0.000468237 0
1.05781 0.000480755 0
1.05665 0.000466674 0
1.05551 0.000478848 0
1.05439 0.000463946 0
1.0533 0.000475562 0
1.05224 0.00045976 0
1.05121 0.000470586 0
1.0502 0.000453807 0
1.04923 0.000463595 0
1.0483 0.000445798 0
1.0474 0.000454287 0
1.04654 0.000435553 0
1.04572 0.000442485 0
1.04495 0.000423232 0
1.04423 0.000428371 0
1.04355 0.000409923 0
1.04294 0.000413105 0
1.04242 0.000399122 0
1.04205 0.000400282 0
0.950995 -7.25455e-05 0
0.909939 -0.000162638 0
0.875984 -0.000265933 0
0.848201 -0.000378822 0
0.82568 -0.000498824 0
0.807578 -0.000623806 0
0.793151 -0.000752735 0
0.781758 -0.000884439 0
0.772859 -0.00101884 0
0.766005 -0.00115527 0
0.760829 -0.00129423 0
0.757031 -0.00143529 0
0.75437 -0.00157925 0
0.752653 -0.00172571 0
0.751723 -0.00187565 0
0.75146 -0.00202862 0
0.751765 -0.00218562 0
0.752563 -0.00234609 0
0.753795 -0.00251102 0
0.755414 -0.0026797 0
0.757385 -0.00285301 0
0.759682 -0.0030301 0
0.762285 -0.00321171 0
0.765179 -0.00339679 0
0.768354 -0.00358589 0
0.771804 -0.00377779 0
0.775524 -0.00397281 0
0.779513 -0.0041695 0
0.78377 -0.00436795 0
0.788295 -0.00456649 0
0.793091 -0.00476493 0
0.798158 -0.0049614 0
0.803499 -0.00515542 0
0.809115 -0.00534492 0
0.815009 -0.00552917 0
0.821181 -0.00570591 0
0.827631 -0.00587419 0
0.83436 -0.00603165 0
0.841366 -0.00617714 0
0.848647 -0.00630827 0
0.8562 -0.00642381 0
0.86402 -0.00652141 0
0.8721 -0.00659985 0
0.880435 -0.00665694 0
0.889015 -0.0066916 0
0.89783 -0.0067019 0
0.906869 -0.006687 0
0.916119 -0.00664538 0
0.925565 -0.00657656 0
0.935194 -0.00647947 0
0.944987 -0.00635411 0
0.954927 -0.00619995 0
0.964995 -0.00601753 0
0.975171 -0.00580689 0
0.985435 -0.00556912 0
0.995764 -0.00530486 0
1.00614 -0.00501575 0
1.01653 -0.00470295 0
1.02692 -0.00436862 0
1.03729 -0.00401439 0
1.04761 -0.00364284 0
1.05785 -0.00325596 0
1.068 -0.00285668 0
1.07803 -0.00244722 0
1.08792 -0.00203073 0
1.09764 -0.00160954 0
1.10717 -0.0011869 0
1.1165 -0.000765124 0
1.12559 -0.00034743 0
1.13443 6.39783e-05 0
1.14301 0.000466037 0
1.15129 0.000856774 0
1.15926 0.00123337 0
1.16691 0.00159416 0
1.17422 0.00193666 0
1.18117 0.0022596 0
1.18775 0.00256088 0
1.19395 0.00283968 0
1.19976 0.00309435 0
1.20516 0.00332451 0
1.21014 0.00352901 0
1.21471 0.00370795 0
1.21885 0.00386067 0
1.22256 0.00398772 0
1.22584 0.00408895 0
1.22869 0.00416532 0
1.23111 0.00421719 0
1.2331 0.00424584 0
1.23467 0.00425211 0
1.23583 0.00423753 0
1.23658 0.00420335 0
1.23694 0.00415128 0
1.23691 0.00408292 0
1.23652 0.004 0
1.23578 0.00390442 0
1.23471 0.00379781 0
1.23333 0.0036823 0
1.23166 0.00355929 0
1.22971 0.00343106 0
1.22752 0.00329865 0
1.22511 0.00316448 0
1.22249 0.00302909 0
1.21969 0.00289501 0
1.21674 0.00276218 0
1.21366 0.00263322 0
1.21047 0.00250745 0
1.20719 0.00238758 0
1.20384 0.00227222 0
1.20044 0.00216425 0
1.19701 0.00206155 0
1.19357 0.0019672 0
1.19012 0.00187835 0
1.1867 0.00179837 0
1.1833 0.00172367 0
1.17994 0.00165799 0
1.17662 0.00159702 0
1.17336 0.00154493 0
1.17017 0.00149671 0
1.16704 0.00145705 0
1.16398 0.00142023 0
1.161 0.00139155 0
1.15809 0.00136458 0
1.15527 0.0013453 0
1.15252 0.00132655 0
1.14985 0.00131506 0
1.14725 0.00130292 0
1.14474 0.00129768 0
1.14229 0.00129065 0
1.13992 0.00129026 0
1.13761 0.00128699 0
1.13538 0.00129021 0
1.1332 0.00128953 0
1.13108 0.00129532 0
1.12902 0.00129625 0
1.12701 0.00130375 0
1.12506 0.00130549 0
1.12314 0.00131404 0
1.12128 0.00131598 0
1.11945 0.00132508 0
1.11766 0.00132676 0
1.1159 0.00133606 0
1.11418 0.00133715 0
1.11248 0.00134643 0
1.11081 0.00134672 0
1.10917 0.00135588 0
1.10755 0.00135526 0
1.10595 0.00136425 0
1.10437 0.00136268 0
1.1028 0.00137154 0
1.10126 0.00136903 0
1.09973 0.00137785 0
1.09821 0.00137444 0
1.0967 0.00138331 0
1.09521 0.00137909 0
1.09372 0.00138812 0
1.09225 0.00138316 0
1.09079 0.00139248 0
1.08934 0.00138686 0
1.08789 0.00139658 0
1.08645 0.00139038 0
1.08503 0.00140059 0
1.08361 0.00139386 0
1.0822 0.00140461 0
1.08079 0.0013974 0
1.0794 0.00140874 0
1.07801 0.00140105 0
1.07663 0.00141296 0
1.07526 0.00140478 0
1.0739 0.00141722 0
1.07255 0.00140851 0
1.07121 0.00142139 0
1.06988 0.00141207 0
1.06857 0.00142524 0
1.06726 0.00141519 0
1.06597 0.00142846 0
1.06469 0.00141753 0
1.06342 0.00143065 0
1.06217 0.00141865 0
1.06094 0.00143131 0
1.05972 0.00141802 0
1.05852 0.00142986 0
1.05734 0.00141497 0
1.05618 0.00142558 0
1.05504 0.00140879 0
1.05393 0.00141768 0
1.05284 0.00139861 0
1.05178 0.00140526 0
1.05075 0.00138352 0
1.04975 0.00138738 0
1.04878 0.00136259 0
1.04785 0.0013631 0
1.04695 0.00133501 0
1.0461 0.00133172 0
1.04528 0.00130049 0
1.04451 0.00129334 0
1.04379 0.00126026 0
1.04312 0.00125014 0
1.04251 0.00121949 0
1.04199 0.00120985 0
1.04162 0.00119345 0
0.950965 -0.000120734 0
0.909885 -0.00027072 0
0.875912 -0.000442561 0
0.848116 -0.000630546 0
0.825585 -0.000830112 0
0.807475 -0.0010383 0
0.793042 -0.00125265 0
0.781644 -0.00147211 0
0.772741 -0.00169551 0
0.765883 -0.00192295 0
0.760703 -0.00215391 0
0.756901 -0.00238916 0
0.754235 -0.00262842 0
0.752513 -0.00287279 0
0.751578 -0.00312204 0
0.751309 -0.00337734 0
0.751609 -0.00363839 0
0.752401 -0.00390632 0
0.753626 -0.00418064 0
0.755239 -0.00446237 0
0.757204 -0.00475076 0
0.759494 -0.00504663 0
0.762091 -0.00534895 0
0.764979 -0.00565826 0
0.768149 -0.00597322 0
0.771593 -0.00629402 0
0.77531 -0.00661898 0
0.779295 -0.00694791 0
0.783549 -0.00727875 0
0.788073 -0.00761087 0
0.792869 -0.00794185 0
0.797937 -0.00827061 0
0.803281 -0.00859435 0
0.808902 -0.00891155 0
0.814801 -0.00921908 0
0.820981 -0.00951503 0
0.827442 -0.00979599 0
0.834183 -0.0100597 0
0.841203 -0.0103027 0
0.8485 -0.0105224 0
0.85607 -0.0107152 0
0.86391 -0.0108788 0
0.872012 -0.0110097 0
0.88037 -0.0111054 0
0.888975 -0.011163 0
0.897817 -0.0111804 0
0.906883 -0.011155 0
0.916161 -0.0110854 0
0.925636 -0.0109697 0
0.935294 -0.0108072 0
0.945115 -0.0105968 0
0.955084 -0.0103388 0
0.965179 -0.0100329 0
0.975381 -0.00968034 0
0.985669 -0.00928192 0
0.996021 -0.00883971 0
1.00641 -0.00835548 0
1.01683 -0.00783221 0
1.02723 -0.00727252 0
1.03761 -0.00668017 0
1.04794 -0.00605848 0
1.05819 -0.00541184 0
1.06834 -0.00474409 0
1.07837 -0.00406007 0
1.08825 -0.00336392 0
1.09796 -0.00266072 0
1.10748 -0.00195471 0
1.11679 -0.00125098 0
1.12586 -0.000553671 0
1.13468 0.00013228 0
1.14323 0.000803041 0
1.15148 0.00145402 0
1.15942 0.00208185 0
1.16703 0.00268243 0
1.1743 0.00325299 0
1.18121 0.00379005 0
1.18775 0.00429151 0
1.19391 0.00475465 0
1.19967 0.00517811 0
1.20502 0.00555994 0
1.20996 0.00589958 0
1.21448 0.00619591 0
1.21858 0.00644915 0
1.22224 0.006659 0
1.22547 0.00682642 0
1.22828 0.00695193 0
1.23065 0.00703716 0
1.2326 0.00708338 0
1.23412 0.00709276 0
1.23524 0.00706725 0
1.23595 0.00700944 0
1.23627 0.00692184 0
1.23621 0.00680727 0
1.23579 0.00666868 0
1.23502 0.00650895 0
1.23392 0.00633133 0
1.23252 0.00613853 0
1.23082 0.00593401 0
1.22885 0.00572011 0
1.22664 0.00550034 0
1.22421 0.00527653 0
1.22158 0.00505217 0
1.21877 0.0048284 0
1.21581 0.00460864 0
1.21272 0.00439324 0
1.20951 0.00418553 0
1.20623 0.003985 0
1.20287 0.0037949 0
1.19947 0.00361385 0
1.19603 0.00344508 0
1.19259 0.00328632 0
1.18914 0.00314087 0
1.18571 0.0030056 0
1.18231 0.00288398 0
1.17894 0.00277204 0
1.17562 0.00267355 0
1.17236 0.00258374 0
1.16916 0.00250679 0
1.16603 0.00243716 0
1.16297 0.00237953 0
1.15999 0.00232765 0
1.15708 0.0022868 0
1.15425 0.00225002 0
1.1515 0.00222328 0
1.14883 0.0021989 0
1.14623 0.00218365 0
1.14371 0.0021691 0
1.14126 0.00216288 0
1.13889 0.00215579 0
1.13658 0.0021564 0
1.13434 0.00215471 0
1.13216 0.00216025 0
1.13004 0.00216217 0
1.12798 0.00217107 0
1.12597 0.00217515 0
1.12401 0.00218612 0
1.12209 0.00219121 0
1.12022 0.0022033 0
1.11839 0.00220851 0
1.1166 0.002221 0
1.11484 0.00222571 0
1.11312 0.00223812 0
1.11142 0.00224191 0
1.10975 0.00225396 0
1.10811 0.00225657 0
1.10649 0.00226813 0
1.10489 0.00226946 0
1.10331 0.00228051 0
1.10174 0.00228055 0
1.1002 0.00229118 0
1.09867 0.00228999 0
1.09715 0.00230033 0
1.09565 0.00229804 0
1.09416 0.00230827 0
1.09267 0.00230501 0
1.0912 0.00231531 0
1.08974 0.00231123 0
1.08829 0.00232178 0
1.08685 0.00231701 0
1.08542 0.00232797 0
1.08399 0.00232265 0
1.08258 0.00233413 0
1.08117 0.00232833 0
1.07977 0.00234042 0
1.07838 0.00233418 0
1.077 0.0023469 0
1.07562 0.00234022 0
1.07426 0.00235353 0
1.0729 0.00234635 0
1.07156 0.00236014 0
1.07022 0.00235236 0
1.0689 0.00236644 0
1.06758 0.00235788 0
1.06628 0.00237199 0
1.06499 0.0023624 0
1.06372 0.00237621 0
1.06246 0.00236528 0
1.06121 0.00237835 0
1.05998 0.00236569 0
1.05877 0.00237749 0
1.05758 0.00236265 0
1.0564 0.00237257 0
1.05525 0.002355 0
1.05412 0.00236234 0
1.05301 0.00234141 0
1.05193 0.00234537 0
1.05087 0.00232041 0
1.04985 0.00232014 0
1.04885 0.00229043 0
1.04789 0.00228506 0
1.04696 0.00224997 0
1.04607 0.00223873 0
1.04522 0.00219798 0
1.04441 0.0021805 0
1.04364 0.00213484 0
1.04292 0.00211196 0
1.04226 0.00206496 0
1.04165 0.00204062 0
1.04113 0.00200305 0
1.04076 0.00198895 0
0.950919 -0.000168696 0
0.909804 -0.000378202 0
0.875805 -0.000618328 0
0.847989 -0.000880838 0
0.825442 -0.00115975 0
0.807321 -0.00145041 0
0.792879 -0.00175006 0
0.781474 -0.00205643 0
0.772564 -0.00236883 0
0.7657 -0.00268634 0
0.760514 -0.00300944 0
0.756705 -0.00333789 0
0.754033 -0.00367276 0
0.752303 -0.00401404 0
0.751361 -0.00436304 0
0.751083 -0.00471973 0
0.751374 -0.00508544 0
0.752157 -0.00545995 0
0.753373 -0.00584446 0
0.754976 -0.00623847 0
0.756932 -0.00664291 0
0.759213 -0.00705694 0
0.7618 -0.00748115 0
0.764679 -0.00791425 0
0.76784 -0.00835643 0
0.771277 -0.00880592 0
0.774987 -0.00926239 0
0.778967 -0.00972356 0
0.783217 -0.0101885 0
0.787739 -0.0106545 0
0.792534 -0.0111199 0
0.797604 -0.0115814 0
0.802952 -0.0120369 0
0.808579 -0.0124825 0
0.814488 -0.0129153 0
0.82068 -0.0133312 0
0.827155 -0.0137269 0
0.833914 -0.0140976 0
0.840955 -0.0144399 0
0.848276 -0.0147488 0
0.855874 -0.0150206 0
0.863743 -0.0152505 0
0.871878 -0.0154348 0
0.880271 -0.0155692 0
0.888914 -0.0156503 0
0.897794 -0.0156741 0
0.906902 -0.0156382 0
0.916222 -0.0155395 0
0.925741 -0.0153762 0
0.935441 -0.0151464 0
0.945306 -0.0148497 0
0.955316 -0.0144853 0
0.965452 -0.014054 0
0.975694 -0.0135565 0
0.986018 -0.0129949 0
0.996404 -0.0123713 0
1.00683 -0.0116891 0
1.01727 -0.0109517 0
1.0277 -0.0101637 0
1.03809 -0.00932946 0
1.04843 -0.00845473 0
1.05869 -0.00754477 0
1.06884 -0.00660596 0
1.07886 -0.00564416 0
1.08874 -0.00466624 0
1.09843 -0.00367833 0
1.10794 -0.00268745 0
1.11722 -0.00169972 0
1.12626 -0.000722034 0
1.13504 0.000239788 0
1.14355 0.00117924 0
1.15175 0.00209105 0
1.15964 0.00296934 0
1.1672 0.00380959 0
1.17442 0.00460672 0
1.18127 0.00535712 0
1.18774 0.00605671 0
1.19383 0.00670288 0
1.19952 0.00729262 0
1.20481 0.00782443 0
1.20968 0.00829644 0
1.21412 0.00870824 0
1.21815 0.00905913 0
1.22174 0.00934978 0
1.2249 0.00958064 0
1.22764 0.00975337 0
1.22994 0.00986949 0
1.23182 0.00993154 0
1.23329 0.009942 0
1.23434 0.00990411 0
1.235 0.00982117 0
1.23526 0.00969691 0
1.23515 0.00953526 0
1.23468 0.0093402 0
1.23387 0.0091161 0
1.23273 0.00886693 0
1.23128 0.00859731 0
1.22955 0.00831092 0
1.22755 0.00801243 0
1.22531 0.00770501 0
1.22286 0.00739324 0
1.2202 0.00707954 0
1.21737 0.00676829 0
1.21439 0.00646102 0
1.21129 0.00616182 0
1.20807 0.00587125 0
1.20477 0.0055931 0
1.20141 0.00532688 0
1.198 0.00507616 0
1.19456 0.00483938 0
1.1911 0.00461995 0
1.18765 0.00441531 0
1.18422 0.00422884 0
1.18081 0.00405699 0
1.17744 0.00390324 0
1.17412 0.00376317 0
1.17086 0.0036405 0
1.16766 0.00352996 0
1.16452 0.00343566 0
1.16146 0.00335156 0
1.15847 0.00328229 0
1.15556 0.00322108 0
1.15272 0.00317318 0
1.14997 0.00313112 0
1.14729 0.00310089 0
1.14469 0.00307433 0
1.14217 0.00305822 0
1.13972 0.00304372 0
1.13734 0.0030385 0
1.13502 0.00303299 0
1.13278 0.00303581 0
1.1306 0.0030366 0
1.12847 0.00304505 0
1.12641 0.00304993 0
1.12439 0.00306201 0
1.12243 0.00306918 0
1.12051 0.00308335 0
1.11864 0.0030914 0
1.11681 0.00310649 0
1.11501 0.0031144 0
1.11325 0.00312958 0
1.11153 0.00313663 0
1.10983 0.00315137 0
1.10816 0.00315711 0
1.10652 0.00317112 0
1.10489 0.00317531 0
1.1033 0.00318849 0
1.10172 0.00319106 0
1.10016 0.00320345 0
1.09861 0.00320446 0
1.09708 0.0032162 0
1.09557 0.00321579 0
1.09407 0.00322709 0
1.09258 0.00322544 0
1.0911 0.00323656 0
1.08963 0.00323388 0
1.08818 0.00324505 0
1.08673 0.00324155 0
1.08529 0.00325301 0
1.08386 0.00324886 0
1.08244 0.0032608 0
1.08103 0.00325616 0
1.07963 0.0032687 0
1.07824 0.00326366 0
1.07685 0.00327688 0
1.07548 0.00327146 0
1.07411 0.00328535 0
1.07275 0.00327951 0
1.0714 0.00329396 0
1.07006 0.00328757 0
1.06874 0.00330239 0
1.06742 0.00329525 0
1.06611 0.00331013 0
1.06482 0.00330193 0
1.06354 0.00331647 0
1.06227 0.00330681 0
1.06102 0.00332047 0
1.05978 0.00330885 0
1.05856 0.003321 0
1.05735 0.00330679 0
1.05617 0.00331665 0
1.055 0.00329914 0
1.05385 0.0033058 0
1.05273 0.00328415 0
1.05163 0.0032866 0
1.05056 0.00325986 0
1.04951 0.00325698 0
1.04849 0.00322412 0
1.0475 0.00321471 0
1.04654 0.00317475 0
1.04562 0.00315768 0
1.04474 0.00310985 0
1.0439 0.00308431 0
1.04309 0.00302867 0
1.04233 0.00299493 0
1.04162 0.00293384 0
1.04096 0.00289504 0
1.04036 0.00283691 0
1.03984 0.00280362 0
1.03948 0.00277201 0
0.950859 -0.000216295 0
0.909697 -0.000484936 0
0.875662 -0.000792722 0
0.84782 -0.00112934 0
0.825253 -0.00148677 0
0.807117 -0.00185953 0
0.792663 -0.0022435 0
0.781247 -0.00263652 0
0.772329 -0.00303684 0
0.765456 -0.0034443 0
0.760262 -0.00385843 0
0.756445 -0.00428013 0
0.753763 -0.00470949 0
0.752023 -0.00514791 0
0.751071 -0.0055956 0
0.750782 -0.00605411 0
0.751061 -0.00652351 0
0.751832 -0.00700525 0
0.753035 -0.00749911 0
0.754626 -0.00800628 0
0.756568 -0.00852614 0
0.758836 -0.00905946 0
0.76141 -0.00960516 0
0.764277 -0.0101635 0
0.767427 -0.0107328 0
0.770854 -0.0113126 0
0.774555 -0.0119008 0
0.778527 -0.0124962 0
0.782772 -0.0130958 0
0.787291 -0.0136979 0
0.792085 -0.0142986 0
0.797157 -0.0148953 0
0.80251 -0.0154836 0
0.808146 -0.0160601 0
0.814067 -0.0166196 0
0.820274 -0.017158 0
0.826769 -0.0176697 0
0.833552 -0.01815 0
0.84062 -0.0185927 0
0.847973 -0.018993 0
0.855607 -0.0193446 0
0.863516 -0.0196426 0
0.871695 -0.0198809 0
0.880135 -0.0200549 0
0.888828 -0.0201592 0
0.897761 -0.0201898 0
0.906923 -0.0201423 0
0.9163 -0.0200136 0
0.925876 -0.0198007 0
0.935634 -0.0195021 0
0.945556 -0.019116 0
0.955622 -0.0186427 0
0.965813 -0.0180822 0
0.976106 -0.0174363 0
0.986479 -0.0167071 0
0.996909 -0.0158982 0
1.00737 -0.0150131 0
1.01785 -0.0140572 0
1.0283 -0.0130358 0
1.03872 -0.0119554 0
1.04908 -0.0108226 0
1.05934 -0.00964528 0
1.0695 -0.00843079 0
1.07952 -0.00718773 0
1.08938 -0.00592407 0
1.09905 -0.00464875 0
1.10853 -0.0033699 0
1.11777 -0.00209643 0
1.12677 -0.000836246 0
1.13551 0.000402115 0
1.14395 0.00161133 0
1.1521 0.00278355 0
1.15992 0.00391233 0
1.16741 0.00499078 0
1.17454 0.00601355 0
1.18131 0.00697496 0
1.1877 0.0078709 0
1.1937 0.00869704 0
1.1993 0.00945068 0
1.20449 0.0101289 0
1.20927 0.0107305 0
1.21362 0.011254 0
1.21755 0.0116995 0
1.22105 0.0120672 0
1.22412 0.0123585 0
1.22676 0.012575 0
1.22897 0.0127192 0
1.23077 0.0127941 0
1.23215 0.0128033 0
1.23312 0.0127507 0
1.2337 0.0126407 0
1.23389 0.0124782 0
1.23371 0.0122681 0
1.23318 0.0120159 0
1.2323 0.0117266 0
1.23111 0.0114059 0
1.22961 0.011059 0
1.22783 0.0106917 0
1.2258 0.0103084 0
1.22352 0.009915 0
1.22103 0.00951519 0
1.21835 0.00911442 0
1.21549 0.00871554 0
1.21249 0.00832356 0
1.20937 0.00794019 0
1.20614 0.00756997 0
1.20282 0.00721344 0
1.19945 0.00687466 0
1.19602 0.00655295 0
1.19258 0.006252 0
1.18911 0.00596995 0
1.18566 0.00571023 0
1.18222 0.00546986 0
1.1788 0.00525216 0
1.17543 0.00505312 0
1.17211 0.00487614 0
1.16884 0.00471629 0
1.16563 0.00457718 0
1.16249 0.00445305 0
1.15942 0.00434789 0
1.15643 0.00425521 0
1.15352 0.00417952 0
1.15068 0.00411362 0
1.14792 0.00406267 0
1.14523 0.00401884 0
1.14263 0.00398802 0
1.1401 0.00396173 0