# vtk DataFile Version 3.0
Flow field at step 1150
ASCII
DATASET STRUCTURED_GRID
DIMENSIONS 200 100 1
POINTS 20000 float
0.005 0.005 0
0.015 0.005 0
0.025 0.005 0
0.035 0.005 0
0.045 0.005 0
0.055 0.005 0
0.065 0.005 0
0.075 0.005 0
0.085 0.005 0
0.095 0.005 0
0.105 0.005 0
0.115 0.005 0
0.125 0.005 0
0.135 0.005 0
0.145 0.005 0
0.155 0.005 0
0.165 0.005 0
0.175 0.005 0
0.185 0.005 0
0.195 0.005 0
0.205 0.005 0
0.215 0.005 0
0.225 0.005 0
0.235 0.005 0
0.245 0.005 0
0.255 0.005 0
0.265 0.005 0
0.275 0.005 0
0.285 0.005 0
0.295 0.005 0
0.305 0.005 0
0.315 0.005 0
0.325 0.005 0
0.335 0.005 0
0.345 0.005 0
0.355 0.005 0
0.365 0.005 0
0.375 0.005 0
0.385 0.005 0
0.395 0.005 0
0.405 0.005 0
0.415 0.005 0
0.425 0.005 0
0.435 0.005 0
0.445 0.005 0
0.455 0.005 0
0.465 0.005 0
0.475 0.005 0
0.485 0.005 0
0.495 0.005 0
0.505 0.005 0
0.515 0.005 0
0.525 0.005 0
0.535 0.005 0
0.545 0.005 0
0.555 0.005 0
0.565 0.005 0
0.575 0.005 0
0.585 0.005 0
0.595 0.005 0
0.605 0.005 0
0.615 0.005 0
0.625 0.005 0
0.635 0.005 0
0.645 0.005 0
0.655 0.005 0
0.665 0.005 0
0.675 0.005 0
0.685 0.005 0
0.695 0.005 0
0.705 0.005 0
0.715 0.005 0
0.725 0.005 0
0.735 0.005 0
0.745 0.005 0
0.755 0.005 0
0.765 0.005 0
0.775 0.005 0
0.785 0.005 0
0.795 0.005 0
0.805 0.005 0
0.815 0.005 0
0.825 0.005 0
0.835 0.005 0
0.845 0.005 0
0.855 0.005 0
0.865 0.005 0
0.875 0.005 0
0.885 0.005 0
0.895 0.005 0
0.905 0.005 0
0.915 0.005 0
0.925 0.005 0
0.935 0.005 0
0.945 0.005 0
0.955 0.005 0
0.965 0.005 0
0.975 0.005 0
0.985 0.005 0
0.995 0.005 0
1.005 0.005 0
1.015 0.005 0
1.025 0.005 0
1.035 0.005 0
1.045 0.005 0
1.055 0.005 0
1.065 0.005 0
1.075 0.005 0
1.085 0.005 0
1.095 0.005 0
1.105 0.005 0
1.115 0.005 0
1.125 0.005 0
1.135 0.005 0
1.145 0.005 0
1.155 0.005 0
1.165 0.005 0
1.175 0.005 0
1.185 0.005 0
1.195 0.005 0
1.205 0.005 0
1.215 0.005 0
1.225 0.005 0
1.235 0.005 0
1.245 0.005 0
1.255 0.005 0
1.265 0.005 0
1.275 0.005 0
1.285 0.005 0
1.295 0.005 0
1.305 0.005 0
1.315 0.005 0
1.325 0.005 0
1.335 0.005 0
1.345 0.005 0
1.355 0.005 0
1.365 0.005 0
1.375 0.005 0
1.385 0.005 0
1.395 0.005 0
1.405 0.005 0
1.415 0.005 0
1.425 0.005 0
1.435 0.005 0
1.445 0.005 0
1.455 0.005 0
1.465 0.005 0
1.475 0.005 0
1.485 0.005 0
1.495 0.005 0
1.505 0.005 0
1.515 0.005 0
1.525 0.005 0
1.535 0.005 0
1.545 0.005 0
1.555 0.005 0
1.565 0.005 0
1.575 0.005 0
1.585 0.005 0
1.595 0.005 0
1.605 0.005 0
1.615 0.005 0
1.625 0.005 0
1.635 0.005 0
1.645 0.005 0
1.655 0.005 0
1.665 0.005 0
1.675 0.005 0
1.685 0.005 0
1.695 0.005 0
1.705 0.005 0
1.715 0.005 0
1.725 0.005 0
1.735 0.005 0
1.745 0.005 0
1.755 0.005 0
1.765 0.005 0
1.775 0.005 0
1.785 0.005 0
1.795 0.005 0
1.805 0.005 0
1.815 0.005 0
1.825 0.005 0
1.835 0.005 0
1.845 0.005 0
1.855 0.005 0
1.865 0.005 0
1.875 0.005 0
1.885 0.005 0
1.895 0.005 0
1.905 0.005 0
1.915 0.005 0
1.925 0.005 0
1.935 0.005 0
1.945 0.005 0
1.955 0.005 0
1.965 0.005 0
1.975 0.005 0
1.985 0.005 0
1.995 0.005 0
0.005 0.015 0
0.015 0.015 0
0.025 0.015 0
0.035 0.015 0
0.045 0.015 0
0.055 0.015 0
0.065 0.015 0
0.075 0.015 0
0.085 0.015 0
0.095 0.015 0
0.105 0.015 0
0.115 0.015 0
0.125 0.015 0
0.135 0.015 0
0.145 0.015 0
0.155 0.015 0
0.165 0.015 0
0.175 0.015 0
0.185 0.015 0
0.195 0.015 0
0.205 0.015 0
0.215 0.015 0
0.225 0.015 0
0.235 0.015 0
0.245 0.015 0
0.255 0.015 0
0.265 0.015 0
0.275 0.015 0
0.285 0.015 0
0.295 0.015 0
0.305 0.015 0
0.315 0.015 0
0.325 0.015 0
0.335 0.015 0
0.345 0.015 0
0.355 0.015 0
0.365 0.015 0
0.375 0.015 0
0.385 0.015 0
0.395 0.015 0
0.405 0.015 0
0.415 0.015 0
0.425 0.015 0
0.435 0.015 0
0.445 0.015 0
0.455 0.015 0
0.465 0.015 0
0.475 0.015 0
0.485 0.015 0
0.495 0.015 0
0.505 0.015 0
0.515 0.015 0
0.525 0.015 0
0.535 0.015 0
0.545 0.015 0
0.555 0.015 0
0.565 0.015 0
0.575 0.015 0
0.585 0.015 0
0.595 0.015 0
0.605 0.015 0
0.615 0.015 0
0.625 0.015 0
0.635 0.015 0
0.645 0.015 0
0.655 0.015 0
0.665 0.015 0
0.675 0.015 0
0.685 0.015 0
0.695 0.015 0
0.705 0.015 0
0.715 0.015 0
0.725 0.015 0
0.735 0.015 0
0.745 0.015 0
0.755 0.015 0
0.765 0.015 0
0.775 0.015 0
0.785 0.015 0
0.795 0.015 0
0.805 0.015 0
0.815 0.015 0
0.825 0.015 0
0.835 0.015 0
0.845 0.015 0
0.855 0.015 0
0.865 0.015 0
0.875 0.015 0
0.885 0.015 0
0.895 0.015 0
0.905 0.015 0
0.915 0.015 0
0.925 0.015 0
0.935 0.015 0
0.945 0.015 0
0.955 0.015 0
0.965 0.015 0
0.975 0.015 0
0.985 0.015 0
0.995 0.015 0
1.005 0.015 0
1.015 0.015 0
1.025 0.015 0
1.035 0.015 0
1.045 0.015 0
1.055 0.015 0
1.065 0.015 0
1.075 0.015 0
1.085 0.015 0
1.095 0.015 0
1.105 0.015 0
1.115 0.015 0
1.125 0.015 0
1.135 0.015 0
1.145 0.015 0
1.155 0.015 0
1.165 0.015 0
1.175 0.015 0
1.185 0.015 0
1.195 0.015 0
1.205 0.015 0
1.215 0.015 0
1.225 0.015 0
1.235 0.015 0
1.245 0.015 0
1.255 0.015 0
1.265 0.015 0
1.275 0.015 0
1.285 0.015 0
1.295 0.015 0
1.305 0.015 0
1.315 0.015 0
1.325 0.015 0
1.335 0.015 0
1.345 0.015 0
1.355 0.015 0
1.365 0.015 0
1.375 0.015 0
1.385 0.015 0
1.395 0.015 0
1.405 0.015 0
1.415 0.015 0
1.425 0.015 0
1.435 0.015 0
1.445 0.015 0
1.455 0.015 0
1.465 0.015 0
1.475 0.015 0
1.485 0.015 0
1.495 0.015 0
1.505 0.015 0
1.515 0.015 0
1.525 0.015 0
1.535 0.015 0
1.545 0.015 0
1.555 0.015 0
1.565 0.015 0
1.575 0.015 0
1.585 0.015 0
1.595 0.015 0
1.605 0.015 0
1.615 0.015 0
1.625 0.015 0
1.635 0.015 0
1.645 0.015 0
1.655 0.015 0
1.665 0.015 0
1.675 0.015 0
1.685 0.015 0
1.695 0.015 0
1.705 0.015 0
1.715 0.015 0
1.725 0.015 0
1.735 0.015 0
1.745 0.015 0
1.755 0.015 0
1.765 0.015 0
1.775 0.015 0
1.785 0.015 0
1.795 0.015 0
1.805 0.015 0
1.815 0.015 0
1.825 0.015 0
1.835 0.015 0
1.845 0.015 0
1.855 0.015 0
1.865 0.015 0
1.875 0.015 0
1.885 0.015 0
1.895 0.015 0
1.905 0.015 0
1.915 0.015 0
1.925 0.015 0
1.935 0.015 0
1.945 0.015 0
1.955 0.015 0
1.965 0.015 0
1.975 0.015 0
1.985 0.015 0
1.995 0.015 0
0.005 0.025 0
0.015 0.025 0
0.025 0.025 0
0.035 0.025 0
0.045 0.025 0
0.055 0.025 0
0.065 0.025 0
0.075 0.025 0
0.085 0.025 0
0.095 0.025 0
0.105 0.025 0
0.115 0.025 0
0.125 0.025 0
0.135 0.025 0
0.145 0.025 0
0.155 0.025 0
0.165 0.025 0
0.175 0.025 0
0.185 0.025 0
0.195 0.025 0
0.205 0.025 0
0.215 0.025 0
0.225 0.025 0
0.235 0.025 0
0.245 0.025 0
0.255 0.025 0
0.265 0.025 0
0.275 0.025 0
0.285 0.025 0
0.295 0.025 0
0.305 0.025 0
0.315 0.025 0
0.325 0.025 0
0.335 0.025 0
0.345 0.025 0
0.355 0.025 0
0.365 0.025 0
0.375 0.025 0
0.385 0.025 0
0.395 0.025 0
0.405 0.025 0
0.415 0.025 0
0.425 0.025 0
0.435 0.025 0
0.445 0.025 0
0.455 0.025 0
0.465 0.025 0
0.475 0.025 0
0.485 0.025 0
0.495 0.025 0
0.505 0.025 0
0.515 0.025 0
0.525 0.025 0
0.535 0.025 0
0.545 0.025 0
0.555 0.025 0
0.565 0.025 0
0.575 0.025 0
0.585 0.025 0
0.595 0.025 0
0.605 0.025 0
0.615 0.025 0
0.625 0.025 0
0.635 0.025 0
0.645 0.025 0
0.655 0.025 0
0.665 0.025 0
0.675 0.025 0
0.685 0.025 0
0.695 0.025 0
0.705 0.025 0
0.715 0.025 0
0.725 0.025 0
0.735 0.025 0
0.745 0.025 0
0.755 0.025 0
0.765 0.025 0
0.775 0.025 0
0.785 0.025 0
0.795 0.025 0
0.805 0.025 0
0.815 0.025 0
0.825 0.025 0
0.835 0.025 0
0.845 0.025 0
0.855 0.025 0
0.865 0.025 0
0.875 0.025 0
0.885 0.025 0
0.895 0.025 0
0.905 0.025 0
0.915 0.025 0
0.925 0.025 0
0.935 0.025 0
0.945 0.025 0
0.955 0.025 0
0.965 0.025 0
0.975 0.025 0
0.985 0.025 0
0.995 0.025 0
1.005 0.025 0
1.015 0.025 0
1.025 0.025 0
1.035 0.025 0
1.045 0.025 0
1.055 0.025 0
1.065 0.025 0
1.075 0.025 0
1.085 0.025 0
1.095 0.025 0
1.105 0.025 0
1.115 0.025 0
1.125 0.025 0
1.135 0.025 0
1.145 0.025 0
1.155 0.025 0
1.165 0.025 0
1.175 0.025 0
1.185 0.025 0
1.195 0.025 0
1.205 0.025 0
1.215 0.025 0
1.225 0.025 0
1.235 0.025 0
1.245 0.025 0
1.255 0.025 0
1.265 0.025 0
1.275 0.025 0
1.285 0.025 0
1.295 0.025 0
1.305 0.025 0
1.315 0.025 0
1.325 0.025 0
1.335 0.025 0
1.345 0.025 0
1.355 0.025 0
1.365 0.025 0
1.375 0.025 0
1.385 0.025 0
1.395 0.025 0
1.405 0.025 0
1.415 0.025 0
1.425 0.025 0
1.435 0.025 0
1.445 0.025 0
1.455 0.025 0
1.465 0.025 0
1.475 0.025 0
1.485 0.025 0
1.495 0.025 0
1.505 0.025 0
1.515 0.025 0
1.525 0.025 0
1.535 0.025 0
1.545 0.025 0
1.555 0.025 0
1.565 0.025 0
1.575 0.025 0
1.585 0.025 0
1.595 0.025 0
1.605 0.025 0
1.615 0.025 0
1.625 0.025 0
1.635 0.025 0
1.645 0.025 0
1.655 0.025 0
1.665 0.025 0
1.675 0.025 0
1.685 0.025 0
1.695 0.025 0
1.705 0.025 0
1.715 0.025 0
1.725 0.025 0
1.735 0.025 0
1.745 0.025 0
1.755 0.025 0
1.765 0.025 0
1.775 0.025 0
1.785 0.025 0
1.795 0.025 0
1.805 0.025 0
1.815 0.025 0
1.825 0.025 0
1.835 0.025 0
1.845 0.025 0
1.855 0.025 0
1.865 0.025 0
1.875 0.025 0
1.885 0.025 0
1.895 0.025 0
1.905 0.025 0
1.915 0.025 0
1.925 0.025 0
1.935 0.025 0
1.945 0.025 0
1.955 0.025 0
1.965 0.025 0
1.975 0.025 0
1.985 0.025 0
1.995 0.025 0
0.005 0.035 0
0.015 0.035 0
0.025 0.035 0
0.035 0.035 0
0.045 0.035 0
0.055 0.035 0
0.065 0.035 0
0.075 0.035 0
0.085 0.035 0
0.095 0.035 0
0.105 0.035 0
0.115 0.035 0
0.125 0.035 0
0.135 0.035 0
0.145 0.035 0
0.155 0.035 0
0.165 0.035 0
0.175 0.035 0
0.185 0.035 0
0.195 0.035 0
0.205 0.035 0
0.215 0.035 0
0.225 0.035 0
0.235 0.035 0
0.245 0.035 0
0.255 0.035 0
0.265 0.035 0
0.275 0.035 0
0.285 0.035 0
0.295 0.035 0
0.305 0.035 0
0.315 0.035 0
0.325 0.035 0
0.335 0.035 0
0.345 0.035 0
0.355 0.035 0
0.365 0.035 0
0.375 0.035 0
0.385 0.035 0
0.395 0.035 0
0.405 0.035 0
0.415 0.035 0
0.425 0.035 0
0.435 0.035 0
0.445 0.035 0
0.455 0.035 0
0.465 0.035 0
0.475 0.035 0
0.485 0.035 0
0.495 0.035 0
0.505 0.035 0
0.515 0.035 0
0.525 0.035 0
0.535 0.035 0
0.545 0.035 0
0.555 0.035 0
0.565 0.035 0
0.575 0.035 0
0.585 0.035 0
0.595 0.035 0
0.605 0.035 0
0.615 0.035 0
0.625 0.035 0
0.635 0.035 0
0.645 0.035 0
0.655 0.035 0
0.665 0.035 0
0.675 0.035 0
0.685 0.035 0
0.695 0.035 0
0.705 0.035 0
0.715 0.035 0
0.725 0.035 0
0.735 0.035 0
0.745 0.035 0
0.755 0.035 0
0.765 0.035 0
0.775 0.035 0
0.785 0.035 0
0.795 0.035 0
0.805 0.035 0
0.815 0.035 0
0.825 0.035 0
0.835 0.035 0
0.845 0.035 0
0.855 0.035 0
0.865 0.035 0
0.875 0.035 0
0.885 0.035 0
0.895 0.035 0
0.905 0.035 0
0.915 0.035 0
0.925 0.035 0
0.935 0.035 0
0.945 0.035 0
0.955 0.035 0
0.965 0.035 0
0.975 0.035 0
0.985 0.035 0
0.995 0.035 0
1.005 0.035 0
1.015 0.035 0
1.025 0.035 0
1.035 0.035 0
1.045 0.035 0
[...]
POINT_DATA 20000
VECTORS velocity float
0.961107 -2.00136e-05 0
0.927794 -4.52371e-05 0
0.899463 -7.47174e-05 0
0.875497 -0.000107309 0
0.855302 -0.000142684 0
0.838336 -0.00017981 0
0.824114 -0.000218944 0
0.812219 -0.000259045 0
0.802296 -0.000300877 0
0.794044 -0.000343273 0
0.787216 -0.000387443 0
0.781606 -0.000431998 0
0.777045 -0.000478549 0
0.773395 -0.000525414 0
0.770544 -0.000574584 0
0.768401 -0.000624028 0
0.766891 -0.000676102 0
0.765954 -0.000728386 0
0.765542 -0.000783594 0
0.765615 -0.000838892 0
0.76614 -0.000897336 0
0.767093 -0.000955662 0
0.768452 -0.00101726 0
0.770201 -0.00107843 0
0.772325 -0.00114287 0
0.774814 -0.00120644 0
0.77766 -0.00127314 0
0.780855 -0.0013384 0
0.784394 -0.00140649 0
0.788273 -0.00147241 0
0.792487 -0.0015407 0
0.797033 -0.00160595 0
0.801908 -0.00167294 0
0.80711 -0.00173586 0
0.812636 -0.00179974 0
0.818481 -0.00185839 0
0.824643 -0.0019171 0
0.831118 -0.00196932 0
0.8379 -0.00202059 0
0.844984 -0.00206406 0
0.852364 -0.00210555 0
0.860032 -0.0021379 0
0.867978 -0.00216727 0
0.876195 -0.00218624 0
0.88467 -0.00220133 0
0.893392 -0.0022049 0
0.902346 -0.00220387 0
0.91152 -0.0021904 0
0.920896 -0.0021719 0
0.930459 -0.00214029 0
0.940189 -0.00210353 0
0.950069 -0.00205335 0
0.960078 -0.00199825 0
0.970195 -0.00192977 0
0.980399 -0.001857 0
0.990667 -0.00177125 0
1.00098 -0.00168224 0
1.01131 -0.00158096 0
1.02163 -0.00147783 0
1.03192 -0.00136346 0
1.04217 -0.00124892 0
1.05233 -0.00112441 0
1.0624 -0.00100168 0
1.07234 -0.000870391 0
1.08213 -0.000742998 0
1.09175 -0.00060853 0
1.10118 -0.000480153 0
1.1104 -0.000346176 0
1.11938 -0.000220485 0
1.12811 -9.05685e-05 0
1.13656 2.89446e-05 0
1.14471 0.000151482 0
1.15255 0.000261645 0
1.16007 0.000373871 0
1.16724 0.000471956 0
1.17404 0.000571437 0
1.18048 0.000655263 0
1.18653 0.000740152 0
1.19218 0.000808153 0
1.19743 0.000877245 0
1.20227 0.000928521 0
1.20668 0.000981288 0
1.21068 0.00101562 0
1.21424 0.00105221 0
1.21738 0.00107004 0
1.22008 0.00109125 0
1.22237 0.00109366 0
1.22423 0.00110085 0
1.22567 0.00108946 0
1.22672 0.00108453 0
1.22736 0.0010614 0
1.22762 0.00104659 0
1.22751 0.00101413 0
1.22704 0.00099195 0
1.22624 0.000952715 0
1.22511 0.000925776 0
1.22369 0.000882385 0
1.22198 0.000853241 0
1.22002 0.0008082 0
1.21782 0.000779233 0
1.21541 0.000734817 0
1.2128 0.000708116 0
1.21002 0.000666271 0
1.2071 0.000643556 0
1.20405 0.000605836 0
1.2009 0.000588406 0
1.19766 0.000555946 0
1.19436 0.000544672 0
1.191 0.000518187 0
1.18762 0.000513533 0
1.18422 0.000493352 0
1.18081 0.000495416 0
1.17742 0.000481542 0
1.17405 0.000490118 0
1.1707 0.000482282 0
1.16739 0.00049693 0
1.16413 0.000494669 0
1.16091 0.000514779 0
1.15775 0.000517499 0
1.15465 0.000542358 0
1.1516 0.000549393 0
1.14861 0.000578235 0
1.14568 0.000588897 0
1.14281 0.00062095 0
1.14 0.000634566 0
1.13724 0.00066908 0
1.13453 0.000685021 0
1.13188 0.000721291 0
1.12927 0.000738986 0
1.12671 0.000776365 0
1.12418 0.000795313 0
1.12169 0.000833217 0
1.11924 0.00085299 0
1.11682 0.000890898 0
1.11442 0.000911133 0
1.11204 0.000948585 0
1.10968 0.000968986 0
1.10734 0.00100558 0
1.10501 0.0010259 0
1.10269 0.00106127 0
1.10038 0.00108133 0
1.09807 0.00111516 0
1.09576 0.00113479 0
1.09345 0.00116681 0
1.09113 0.00118588 0
1.08881 0.00121584 0
1.08649 0.00123424 0
1.08415 0.00126191 0
1.08181 0.00127956 0
1.07946 0.00130474 0
1.0771 0.00132155 0
1.07472 0.00134405 0
1.07233 0.00135995 0
1.06994 0.00137962 0
1.06753 0.00139452 0
1.0651 0.00141121 0
1.06267 0.00142504 0
1.06023 0.00143863 0
1.05777 0.0014513 0
1.05531 0.0014617 0
1.05283 0.00147314 0
1.05036 0.00148027 0
1.04787 0.00149038 0
1.04538 0.00149421 0
1.04289 0.00150291 0
1.04039 0.00150341 0
1.0379 0.00151061 0
1.0354 0.00150781 0
1.03292 0.00151344 0
1.03043 0.00150738 0
1.02796 0.00151135 0
1.02549 0.0015021 0
1.02304 0.00150435 0
1.0206 0.00149203 0
1.01818 0.00149249 0
1.01578 0.00147724 0
1.0134 0.00147585 0
1.01105 0.00145783 0
1.00872 0.00145454 0
1.00643 0.00143394 0
1.00417 0.00142869 0
1.00195 0.00140572 0
0.999768 0.00139845 0
0.997631 0.00137332 0
0.995543 0.00136397 0
0.993505 0.00133693 0
0.991524 0.00132542 0
0.989602 0.00129671 0
0.987744 0.00128298 0
0.985954 0.00125288 0
0.984238 0.0012369 0
0.9826 0.00120575 0
0.981044 0.00118768 0
0.979576 0.00115608 0
0.9782 0.00113649 0
0.976924 0.00110579 0
0.975754 0.00108637 0
0.974706 0.00105993 0
0.97382 0.00104502 0
0.973209 0.00103163 0
0.961094 -5.99633e-05 0
0.92777 -0.000135726 0
0.899431 -0.000223864 0
0.875458 -0.000321949 0
0.855259 -0.000427506 0
0.838288 -0.000539451 0
0.824063 -0.000656002 0
0.812165 -0.000777157 0
0.802239 -0.000901503 0
0.793985 -0.00102986 0
0.787155 -0.0011609 0
0.781542 -0.00129607 0
0.776979 -0.00143393 0
0.773327 -0.00157639 0
0.770473 -0.00172176 0
0.768327 -0.00187235 0
0.766815 -0.00202607 0
0.765875 -0.00218558 0
0.76546 -0.00234835 0
0.765529 -0.0025173 0
0.766052 -0.00268942 0
0.767002 -0.00286788 0
0.768358 -0.00304911 0
0.770103 -0.00323651 0
0.772225 -0.00342593 0
0.774712 -0.00362094 0
0.777556 -0.00381682 0
0.78075 -0.00401729 0
0.784288 -0.00421703 0
0.788166 -0.00441986 0
0.79238 -0.00461991 0
0.796927 -0.00482108 0
0.801804 -0.00501692 0
0.807008 -0.00521144 0
0.812537 -0.00539767 0
0.818386 -0.00557971 0
0.824553 -0.00575011 0
0.831034 -0.00591313 0
0.837823 -0.00606091 0
0.844915 -0.00619793 0
0.852304 -0.006316 0
0.859981 -0.00641991 0
0.867939 -0.00650126 0
0.876166 -0.00656524 0
0.884653 -0.00660335 0
0.893388 -0.00662133 0
0.902355 -0.00661064 0
0.911542 -0.00657772 0
0.920932 -0.00651411 0
0.930508 -0.00642702 0
0.940252 -0.00630814 0
0.950145 -0.00616558 0
0.960167 -0.00599118 0
0.970296 -0.00579402 0
0.980511 -0.0055661 0
0.99079 -0.00531749 0
1.00111 -0.0050403 0
1.01145 -0.0047456 0
1.02177 -0.00442548 0
1.03207 -0.00409201 0
1.04232 -0.00373716 0
1.05249 -0.00337389 0
1.06255 -0.0029939 0
1.07249 -0.00261101 0
1.08228 -0.00221646 0
1.0919 -0.00182484 0
1.10132 -0.00142674 0
1.11052 -0.00103746 0
1.11949 -0.000646783 0
1.12821 -0.000270636 0
1.13664 0.000102195 0
1.14478 0.000455192 0
1.1526 0.000800726 0
1.1601 0.00112172 0
1.16725 0.00143186 0
1.17403 0.00171351 0
1.18045 0.00198178 0
1.18648 0.00221851 0
1.19211 0.00244032 0
1.19733 0.00262848 0
1.20214 0.00280123 0
1.20654 0.0029392 0
1.2105 0.00306232 0
1.21404 0.00315052 0
1.21716 0.00322545 0
1.21984 0.00326624 0
1.2221 0.00329627 0
1.22394 0.00329376 0
1.22537 0.00328382 0
1.22639 0.00324363 0
1.22702 0.00319995 0
1.22726 0.00312885 0
1.22713 0.00305863 0
1.22665 0.00296411 0
1.22583 0.00287508 0
1.2247 0.00276496 0
1.22326 0.0026649 0
1.22155 0.00254688 0
1.21957 0.00244325 0
1.21737 0.00232449 0
1.21495 0.00222405 0
1.21233 0.00211087 0
1.20955 0.00201935 0
1.20663 0.00191695 0
1.20358 0.00183893 0
1.20042 0.00175128 0
1.19718 0.00169003 0
1.19387 0.00161983 0
1.19052 0.0015774 0
1.18713 0.00152614 0
1.18373 0.00150339 0
1.18033 0.00147148 0
1.17693 0.00146828 0
1.17356 0.00145523 0
1.17021 0.00147066 0
1.16691 0.00147528 0
1.16364 0.00150781 0
1.16043 0.00152842 0
1.15726 0.00157613 0
1.15416 0.00161076 0
1.15111 0.00167149 0
1.14812 0.00171801 0
1.14519 0.00178954 0
1.14232 0.00184582 0
1.13951 0.00192596 0
1.13675 0.00198995 0
1.13404 0.00207661 0
1.13139 0.0021464 0
1.12878 0.00223766 0
1.12622 0.00231155 0
1.12369 0.00240568 0
1.12121 0.00248215 0
1.11875 0.00257763 0
1.11633 0.00265537 0
1.11393 0.00275086 0
1.11155 0.00282877 0
1.1092 0.0029231 0
1.10686 0.00300023 0
1.10453 0.00309241 0
1.10221 0.00316796 0
1.0999 0.00325712 0
1.09759 0.00333044 0
1.09528 0.00341583 0
1.09297 0.00348635 0
1.09066 0.00356731 0
1.08834 0.00363455 0
1.08602 0.0037105 0
1.08369 0.00377405 0
1.08135 0.00384446 0
1.079 0.00390393 0
1.07665 0.00396835 0
1.07427 0.0040234 0
1.07189 0.0040814 0
1.0695 0.00413171 0
1.06709 0.00418292 0
1.06468 0.0042282 0
1.06225 0.00427226 0
1.05981 0.00431222 0
1.05736 0.00434885 0
1.0549 0.00438323 0
1.05244 0.00441217 0
1.04996 0.00444073 0
1.04748 0.00446178 0
1.045 0.00448431 0
1.04251 0.00449731 0
1.04002 0.00451363 0
1.03754 0.00451851 0
1.03505 0.00452845 0
1.03257 0.00452519 0
1.03009 0.00452865 0
1.02762 0.0045173 0
1.02517 0.00451421 0
1.02272 0.00449488 0
1.02029 0.00448522 0
1.01788 0.0044581 0
1.01548 0.00444188 0
1.01311 0.0044072 0
1.01077 0.00438448 0
1.00845 0.00434256 0
1.00616 0.0043134 0
1.00391 0.00426457 0
1.0017 0.00422908 0
0.999522 0.00417372 0
0.997392 0.00413199 0
0.99531 0.00407048 0
0.99328 0.00402261 0
0.991305 0.00395536 0
0.989389 0.00390144 0
0.987538 0.0038289 0
0.985754 0.0037691 0
0.984044 0.00369185 0
0.982411 0.00362662 0
0.98086 0.00354568 0
0.979397 0.00347623 0
0.978027 0.00339394 0
0.976755 0.00332362 0
0.975589 0.00324586 0
0.974545 0.00318352 0
0.973663 0.00312552 0
0.973053 0.00309349 0
0.961068 -9.98504e-05 0
0.927723 -0.000225878 0
0.899367 -0.000372758 0
0.875382 -0.000535783 0
0.855171 -0.000711821 0
0.838192 -0.000897739 0
0.82396 -0.00109227 0
0.812057 -0.00129333 0
0.802126 -0.00150105 0
0.793868 -0.00171393 0
0.787032 -0.00193304 0
0.781415 -0.00215707 0
0.776847 -0.0023878 0
0.77319 -0.0026238 0
0.770331 -0.00286734 0
0.76818 -0.00311669 0
0.766661 -0.00337446 0
0.765716 -0.0036385 0
0.765295 -0.00391168 0
0.765358 -0.0041913 0
0.765875 -0.00448041 0
0.766819 -0.00477572 0
0.768169 -0.00508038 0
0.769909 -0.00539044 0
0.772026 -0.00570912 0
0.774509 -0.00603176 0
0.777348 -0.00636159 0
0.780539 -0.00669321 0
0.784075 -0.00702983 0
0.787952 -0.0073653 0
0.792166 -0.00770276 0
0.796715 -0.00803534 0
0.801595 -0.0083661 0
0.806804 -0.00868747 0
0.812338 -0.00900245 0
0.818196 -0.00930283 0
0.824373 -0.00959163 0
0.830866 -0.00986008 0
0.837668 -0.0101113 0
0.844776 -0.0103361 0
0.852182 -0.0105378 0
0.859879 -0.010707 0
0.867858 -0.0108475 0
0.876108 -0.0109496 0
0.884619 -0.0110179 0
0.893379 -0.0110428 0
0.902373 -0.0110296 0
0.911587 -0.0109691 0
0.921004 -0.0108674 0
0.930607 -0.0107159 0
0.940378 -0.010522 0
0.950297 -0.0102774 0
0.960344 -0.00999077 0
0.970497 -0.00965453 0
0.980734 -0.0092787 0
0.991033 -0.00885615 0
1.00137 -0.0083983 0
1.01172 -0.00789845 0
1.02206 -0.00736934 0
1.03237 -0.00680451 0
1.04262 -0.00621793 0
1.05279 -0.00560318 0
1.06286 -0.0049753 0
1.07279 -0.00432768 0
1.08257 -0.00367628 0
1.09217 -0.00301401 0
1.10158 -0.00235758 0
1.11077 -0.00169916 0
1.11971 -0.00105608 0
1.1284 -0.000419502 0
1.1368 0.0001928 0
1.14491 0.000790878 0
1.1527 0.00135662 0
1.16016 0.00190152 0
1.16726 0.00240719 0
1.17401 0.00288678 0
1.18038 0.00332166 0
1.18636 0.00372676 0
1.19194 0.00408324 0
1.19712 0.00440792 0
1.20189 0.00468174 0
1.20623 0.00492347 0
1.21015 0.00511375 0
1.21364 0.0052734 0
1.21671 0.0053826 0
1.21935 0.00546422 0
1.22157 0.0054979 0
1.22336 0.00550846 0
1.22475 0.00547487 0
1.22573 0.00542382 0
1.22632 0.00533339 0
1.22653 0.00523203 0
1.22637 0.00509675 0
1.22586 0.00495758 0
1.22502 0.0047903 0
1.22386 0.00462632 0
1.2224 0.00443999 0
1.22067 0.00426395 0
1.21868 0.00407096 0
1.21646 0.00389469 0
1.21402 0.00370625 0
1.2114 0.00354017 0
1.20861 0.00336583 0
1.20567 0.00321848 0
1.20262 0.00306583 0
1.19946 0.00294372 0
1.19621 0.00281824 0
1.1929 0.00272576 0
1.18955 0.00263085 0
1.18616 0.00257037 0
1.18276 0.00250754 0
1.17935 0.00247966 0
1.17596 0.00244877 0
1.17258 0.00245259 0
1.16924 0.00245218 0
1.16593 0.00248564 0
1.16266 0.00251328 0
1.15945 0.00257351 0
1.15629 0.00262611 0
1.15318 0.00270972 0
1.15013 0.00278383 0
1.14714 0.0028872 0
1.14421 0.00297925 0
1.14134 0.00309874 0
1.13853 0.00320521 0
1.13577 0.00333729 0
1.13306 0.00345487 0
1.13041 0.00359626 0
1.1278 0.00372191 0
1.12524 0.00386962 0
1.12271 0.00400063 0
1.12023 0.00415199 0
1.11777 0.00428599 0
1.11535 0.00443867 0
1.11295 0.00457362 0
1.11058 0.00472559 0
1.10822 0.00485973 0
1.10589 0.00500925 0
1.10356 0.00514111 0
1.10124 0.00528668 0
1.09893 0.00541501 0
1.09663 0.00555533 0
1.09433 0.00567906 0
1.09202 0.005813 0
1.08972 0.00593123 0
1.08741 0.00605782 0
1.08509 0.00616975 0
1.08277 0.00628811 0
1.08044 0.00639304 0
1.0781 0.00650239 0
1.07574 0.00659968 0
1.07338 0.00669932 0
1.07101 0.0067884 0
1.06862 0.00687768 0
1.06623 0.00695801 0
1.06382 0.00703635 0
1.0614 0.00710743 0
1.05898 0.00717431 0
1.05654 0.00723569 0
1.05409 0.00729065 0
1.05164 0.0073419 0
1.04918 0.00738456 0
1.04671 0.0074253 0
1.04424 0.00745536 0
1.04176 0.00748529 0
1.03929 0.00750253 0
1.03681 0.00752139 0
1.03434 0.00752568 0
1.03187 0.00753329 0
1.02941 0.00752463 0
1.02696 0.00752088 0
1.02452 0.00749934 0
1.02208 0.00748422 0
1.01967 0.00745001 0
1.01727 0.00742356 0
1.01489 0.00737696 0
1.01253 0.00733932 0
1.0102 0.00728071 0
1.0079 0.00723207 0
1.00563 0.0071619 0
1.00339 0.00710248 0
1.00119 0.00702126 0
0.999031 0.00695132 0
0.996915 0.0068596 0
0.994846 0.00677939 0
0.992829 0.00667772 0
0.990867 0.0065875 0
0.988965 0.00647648 0
0.987125 0.00637656 0
0.985354 0.00625689 0
0.983655 0.00614781 0
0.982034 0.00602063 0
0.980494 0.00590371 0
0.979041 0.00577144 0
0.97768 0.00565016 0
0.976418 0.00551881 0
0.97526 0.00540241 0
0.974224 0.00528752 0
0.973347 0.00519987 0
0.972743 0.00514124 0
0.961029 -0.000139519 0
0.927653 -0.000315718 0
0.899272 -0.000520821 0
0.875266 -0.000748842 0
0.855041 -0.000994531 0
0.838049 -0.0012547 0
0.823807 -0.00152607 0
0.811895 -0.0018076 0
0.801956 -0.00209726 0
0.79369 -0.00239552 0
0.786849 -0.00270098 0
0.781224 -0.00301512 0
0.776649 -0.00333671 0
0.772984 -0.0036679 0
0.770118 -0.00400731 0
0.767958 -0.00435751 0
0.766432 -0.00471677 0
0.765477 -0.00508792 0
0.765047 -0.00546868 0
0.765101 -0.00586205 0
0.765609 -0.0062651 0
0.766543 -0.00668087 0
0.767885 -0.0071057 0
0.769617 -0.00754259 0
0.771726 -0.00798708 0
0.774201 -0.00844206 0
0.777036 -0.00890221 0
0.780221 -0.00937025 0
0.783754 -0.00983997 0
0.787629 -0.0103139 0
0.791844 -0.0107848 0
0.796394 -0.0112551 0
0.801279 -0.0117167 0
0.806494 -0.0121716 0
0.812039 -0.012611 0
0.817908 -0.0130367 0
0.8241 -0.0134393 0
0.830611 -0.0138204 0
0.837434 -0.01417 0
0.844566 -0.0144899 0
0.851998 -0.0147697 0
0.859724 -0.0150116 0
0.867734 -0.0152049 0
0.876019 -0.0153524 0
0.884566 -0.0154438 0
0.893363 -0.0154826 0
0.902397 -0.0154588 0
0.911651 -0.0153773 0
0.921109 -0.0152286 0
0.930753 -0.0150191 0
0.940564 -0.0147401 0
0.950523 -0.0143995 0
0.960607 -0.0139897 0
0.970796 -0.0135204 0
0.981067 -0.0129848 0
0.991395 -0.0123943 0
1.00176 -0.0117432 0
1.01213 -0.0110445 0
1.02249 -0.0102931 0
1.03282 -0.00950372 0
1.04307 -0.00867169 0
1.05325 -0.00781306 0
1.06331 -0.00692327 0
1.07323 -0.00601954 0
1.083 -0.0050971 0
1.09259 -0.00417402 0
1.10197 -0.00324498 0
1.11112 -0.00232868 0
1.12004 -0.00141885 0
1.12868 -0.000534606 0
1.13704 0.000331576 0
1.1451 0.00116039 0
1.15283 0.0019609 0
1.16023 0.00271377 0
1.16728 0.00342986 0
1.17396 0.00408988 0
1.18026 0.00470671 0
1.18617 0.00526121 0
1.19169 0.00576838 0
1.19679 0.00620924 0
1.20149 0.00660107 0
1.20576 0.00692495 0
1.20961 0.00720049 0
1.21303 0.0074088 0
1.21603 0.00757177 0
1.2186 0.00767037 0
1.22075 0.00772876 0
1.22248 0.00772758 0
1.22381 0.00769311 0
1.22473 0.00760545 0
1.22527 0.00749283 0
1.22543 0.00733456 0
1.22522 0.00716061 0
1.22467 0.00694921 0
1.22379 0.00673186 0
1.22259 0.00648546 0
1.2211 0.00624275 0
1.21934 0.00597908 0
1.21732 0.00572821 0
1.21508 0.00546372 0
1.21262 0.00522019 0
1.20998 0.00496933 0
1.20718 0.00474632 0
1.20424 0.00452096 0
1.20117 0.0043289 0
1.198 0.00413804 0
1.19475 0.00398444 0
1.19144 0.0038342 0
1.18808 0.0037237 0
1.18469 0.00361738 0
1.18129 0.00355196 0
1.17788 0.00349044 0
1.17448 0.00346983 0
1.17111 0.0034519 0
1.16776 0.00347401 0
1.16445 0.0034969 0
1.16119 0.00355825 0
1.15798 0.00361806 0
1.15481 0.00371429 0
1.15171 0.00380643 0
1.14866 0.00393266 0
1.14567 0.00405221 0
1.14274 0.0042034 0
1.13987 0.0043454 0
1.13705 0.00451656 0
1.13429 0.00467626 0
1.13159 0.00486268 0
1.12893 0.00503563 0
1.12632 0.00523297 0
1.12376 0.00541516 0
1.12124 0.00561952 0
1.11875 0.0058074 0
1.1163 0.00601533 0
1.11388 0.00620581 0
1.11149 0.0064143 0
1.10911 0.00660472 0
1.10676 0.00681119 0
1.10443 0.00699928 0
1.10211 0.00720149 0
1.09979 0.00738533 0
1.09749 0.00758137 0
1.09519 0.00775932 0
1.0929 0.00794753 0
1.0906 0.0081182 0
1.0883 0.00829714 0
1.086 0.00845932 0
1.0837 0.00862771 0
1.08138 0.00878033 0
1.07906 0.00893705 0
1.07673 0.00907915 0
1.07439 0.00922319 0
1.07204 0.0093539 0
1.06968 0.00948432 0
1.06731 0.00960285 0
1.06493 0.00971881 0
1.06254 0.00982442 0
1.06014 0.00992516 0
1.05772 0.0100172 0
1.0553 0.010102 0
1.05287 0.0101798 0
1.05044 0.0102482 0
1.048 0.0103112 0
1.04555 0.0103626 0
1.0431 0.0104103 0
1.04064 0.0104444 0
1.03819 0.0104765 0
1.03573 0.0104929 0
1.03328 0.0105092 0
1.03083 0.0105078 0
1.02839 0.010508 0
1.02596 0.010489 0
1.02354 0.010473 0
1.02113 0.0104364 0
1.01874 0.0104043 0
1.01636 0.0103505 0
1.014 0.0103025 0
1.01167 0.0102318 0
1.00936 0.0101682 0
1.00708 0.0100813 0
1.00483 0.0100023 0
1.00261 0.00989975 0
1.00043 0.00980587 0
0.998295 0.00968833 0
0.996199 0.00957995 0
0.994152 0.00944813 0
0.992155 0.00932567 0
0.990213 0.00918032 0
0.988329 0.00904421 0
0.986509 0.00888614 0
0.984755 0.00873699 0
0.983075 0.00856733 0
0.981469 0.00840636 0
0.979946 0.00822731 0
0.978508 0.00805754 0
0.977162 0.00787431 0
0.975912 0.00770375 0
0.974768 0.00752972 0
0.973742 0.00737931 0
0.972876 0.00724912 0
0.972277 0.00717207 0
0.960977 -0.000178981 0
0.927559 -0.000404892 0
0.899145 -0.000668074 0
0.875113 -0.000960293 0
0.854867 -0.00127565 0
0.837859 -0.00160894 0
0.823603 -0.0019574 0
0.81168 -0.00231797 0
0.80173 -0.00269012 0
0.793455 -0.00307207 0
0.786604 -0.00346477 0
0.78097 -0.00386704 0
0.776385 -0.00428079 0
0.772711 -0.00470493 0
0.769833 -0.00514196 0
0.767663 -0.00559055 0
0.766124 -0.00605353 0
0.765159 -0.00652909 0
0.764716 -0.00702023 0
0.764758 -0.00752446 0
0.765253 -0.0080448 0
0.766176 -0.008578 0
0.767505 -0.00912694 0
0.769226 -0.00968751 0
0.771324 -0.0102624 0
0.773791 -0.0108465 0
0.776616 -0.0114421 0
0.779796 -0.0120433 0
0.783324 -0.0126519 0
0.787197 -0.0132609 0
0.791411 -0.0138717 0
0.795965 -0.0144762 0
0.800854 -0.0150755 0
0.806079 -0.0156603 0
0.811635 -0.0162314 0
0.817521 -0.0167787 0
0.823733 -0.0173026 0
0.830267 -0.0177922 0
0.837118 -0.0182478 0
0.844281 -0.0186581 0
0.851748 -0.0190236 0
0.859513 -0.0193325 0
0.867565 -0.019586 0
0.875896 -0.0197725 0
0.884491 -0.0198939 0
0.893339 -0.019939 0
0.902425 -0.0199111 0
0.911733 -0.0197999 0
0.921245 -0.01961 0
0.930943 -0.0193324 0
0.940808 -0.0189736 0
0.950819 -0.0185258 0
0.960954 -0.0179977 0
0.97119 -0.0173828 0
0.981504 -0.016692 0
0.991873 -0.0159201 0
1.00227 -0.0150804 0
1.01267 -0.0141686 0
1.02306 -0.0132 0
1.0334 -0.0121713 0
1.04367 -0.0110995 0
1.05384 -0.00998202 0
1.0639 -0.00883706 0
1.07381 -0.00766217 0
1.08356 -0.00647675 0
1.09312 -0.00527796 0
1.10247 -0.00408594 0
1.11158 -0.00289707 0
1.12045 -0.00173188 0
1.12904 -0.000585551 0
1.13733 0.000521291 0
1.14532 0.00159505 0
1.15298 0.00261526 0
1.16031 0.00359022 0
1.16727 0.00449982 0
1.17386 0.00535455 0
1.18008 0.00613473 0
1.1859 0.00685327 0
1.19132 0.007491 0
1.19633 0.00806335 0
1.20093 0.00855168 0
1.2051 0.00897401 0
1.20886 0.00931214 0
1.21218 0.00958668 0
1.21509 0.00977973 0
1.21757 0.00991444 0
1.21963 0.00997299 0
1.22128 0.00998094 0
1.22253 0.00992029 0
1.22338 0.00981879 0
1.22384 0.00965797 0
1.22393 0.00946753 0
1.22366 0.00922818 0
1.22305 0.00897127 0
1.22212 0.00867635 0
1.22087 0.00837613 0
1.21934 0.00804867 0
1.21754 0.00772774 0
1.21549 0.00738963 0
1.21322 0.00706887 0
1.21074 0.00673981 0
1.20808 0.00643749 0
1.20526 0.00613418 0
1.2023 0.00586528 0
1.19922 0.00560092 0
1.19604 0.00537677 0
1.19279 0.00516087 0
1.18947 0.00498909 0
1.18611 0.00482751 0
1.18272 0.00471221 0
1.17931 0.0046075 0
1.1759 0.00454968 0
1.17251 0.00450151 0
1.16913 0.00449956 0
1.16578 0.00450532 0
1.16248 0.00455564 0
1.15921 0.004611 0
1.156 0.00470857 0
1.15284 0.00480807 0
1.14973 0.00494698 0
1.14668 0.00508452 0
1.14369 0.00525844 0
1.14076 0.00542773 0
1.13789 0.00563028 0
1.13508 0.0058251 0
1.13232 0.00605012 0