# vtk DataFile Version 3.0
Flow field at step 650
ASCII
DATASET STRUCTURED_GRID
DIMENSIONS 200 100 1
POINTS 20000 float
0.005 0.005 0
0.015 0.005 0
0.025 0.005 0
0.035 0.005 0
0.045 0.005 0
0.055 0.005 0
0.065 0.005 0
0.075 0.005 0
0.085 0.005 0
0.095 0.005 0
0.105 0.005 0
0.115 0.005 0
0.125 0.005 0
0.135 0.005 0
0.145 0.005 0
0.155 0.005 0
0.165 0.005 0
0.175 0.005 0
0.185 0.005 0
0.195 0.005 0
0.205 0.005 0
0.215 0.005 0
0.225 0.005 0
0.235 0.005 0
0.245 0.005 0
0.255 0.005 0
0.265 0.005 0
0.275 0.005 0
0.285 0.005 0
0.295 0.005 0
0.305 0.005 0
0.315 0.005 0
0.325 0.005 0
0.335 0.005 0
0.345 0.005 0
0.355 0.005 0
0.365 0.005 0
0.375 0.005 0
0.385 0.005 0
0.395 0.005 0
0.405 0.005 0
0.415 0.005 0
0.425 0.005 0
0.435 0.005 0
0.445 0.005 0
0.455 0.005 0
0.465 0.005 0
0.475 0.005 0
0.485 0.005 0
0.495 0.005 0
0.505 0.005 0
0.515 0.005 0
0.525 0.005 0
0.535 0.005 0
0.545 0.005 0
0.555 0.005 0
0.565 0.005 0
0.575 0.005 0
0.585 0.005 0
0.595 0.005 0
0.605 0.005 0
0.615 0.005 0
0.625 0.005 0
0.635 0.005 0
0.645 0.005 0
0.655 0.005 0
0.665 0.005 0
0.675 0.005 0
0.685 0.005 0
0.695 0.005 0
0.705 0.005 0
0.715 0.005 0
0.725 0.005 0
0.735 0.005 0
0.745 0.005 0
0.755 0.005 0
0.765 0.005 0
0.775 0.005 0
0.785 0.005 0
0.795 0.005 0
0.805 0.005 0
0.815 0.005 0
0.825 0.005 0
0.835 0.005 0
0.845 0.005 0
0.855 0.005 0
0.865 0.005 0
0.875 0.005 0
0.885 0.005 0
0.895 0.005 0
0.905 0.005 0
0.915 0.005 0
0.925 0.005 0
0.935 0.005 0
0.945 0.005 0
0.955 0.005 0
0.965 0.005 0
0.975 0.005 0
0.985 0.005 0
0.995 0.005 0
1.005 0.005 0
1.015 0.005 0
1.025 0.005 0
1.035 0.005 0
1.045 0.005 0
1.055 0.005 0
1.065 0.005 0
1.075 0.005 0
1.085 0.005 0
1.095 0.005 0
1.105 0.005 0
1.115 0.005 0
1.125 0.005 0
1.135 0.005 0
1.145 0.005 0
1.155 0.005 0
1.165 0.005 0
1.175 0.005 0
1.185 0.005 0
1.195 0.005 0
1.205 0.005 0
1.215 0.005 0
1.225 0.005 0
1.235 0.005 0
1.245 0.005 0
1.255 0.005 0
1.265 0.005 0
1.275 0.005 0
1.285 0.005 0
1.295 0.005 0
1.305 0.005 0
1.315 0.005 0
1.325 0.005 0
1.335 0.005 0
1.345 0.005 0
1.355 0.005 0
1.365 0.005 0
1.375 0.005 0
1.385 0.005 0
1.395 0.005 0
1.405 0.005 0
1.415 0.005 0
1.425 0.005 0
1.435 0.005 0
1.445 0.005 0
1.455 0.005 0
1.465 0.005 0
1.475 0.005 0
1.485 0.005 0
1.495 0.005 0
1.505 0.005 0
1.515 0.005 0
1.525 0.005 0
1.535 0.005 0
1.545 0.005 0
1.555 0.005 0
1.565 0.005 0
1.575 0.005 0
1.585 0.005 0
1.595 0.005 0
1.605 0.005 0
1.615 0.005 0
1.625 0.005 0
1.635 0.005 0
1.645 0.005 0
1.655 0.005 0
1.665 0.005 0
1.675 0.005 0
1.685 0.005 0
1.695 0.005 0
1.705 0.005 0
1.715 0.005 0
1.725 0.005 0
1.735 0.005 0
1.745 0.005 0
1.755 0.005 0
1.765 0.005 0
1.775 0.005 0
1.785 0.005 0
1.795 0.005 0
1.805 0.005 0
1.815 0.005 0
1.825 0.005 0
1.835 0.005 0
1.845 0.005 0
1.855 0.005 0
1.865 0.005 0
1.875 0.005 0
1.885 0.005 0
1.895 0.005 0
1.905 0.005 0
1.915 0.005 0
1.925 0.005 0
1.935 0.005 0
1.945 0.005 0
1.955 0.005 0
1.965 0.005 0
1.975 0.005 0
1.985 0.005 0
1.995 0.005 0
0.005 0.015 0
0.015 0.015 0
0.025 0.015 0
0.035 0.015 0
0.045 0.015 0
0.055 0.015 0
0.065 0.015 0
0.075 0.015 0
0.085 0.015 0
0.095 0.015 0
0.105 0.015 0
0.115 0.015 0
0.125 0.015 0
0.135 0.015 0
0.145 0.015 0
0.155 0.015 0
0.165 0.015 0
0.175 0.015 0
0.185 0.015 0
0.195 0.015 0
0.205 0.015 0
0.215 0.015 0
0.225 0.015 0
0.235 0.015 0
0.245 0.015 0
0.255 0.015 0
0.265 0.015 0
0.275 0.015 0
0.285 0.015 0
0.295 0.015 0
0.305 0.015 0
0.315 0.015 0
0.325 0.015 0
0.335 0.015 0
0.345 0.015 0
0.355 0.015 0
0.365 0.015 0
0.375 0.015 0
0.385 0.015 0
0.395 0.015 0
0.405 0.015 0
0.415 0.015 0
0.425 0.015 0
0.435 0.015 0
0.445 0.015 0
0.455 0.015 0
0.465 0.015 0
0.475 0.015 0
0.485 0.015 0
0.495 0.015 0
0.505 0.015 0
0.515 0.015 0
0.525 0.015 0
0.535 0.015 0
0.545 0.015 0
0.555 0.015 0
0.565 0.015 0
0.575 0.015 0
0.585 0.015 0
0.595 0.015 0
0.605 0.015 0
0.615 0.015 0
0.625 0.015 0
0.635 0.015 0
0.645 0.015 0
0.655 0.015 0
0.665 0.015 0
0.675 0.015 0
0.685 0.015 0
0.695 0.015 0
0.705 0.015 0
0.715 0.015 0
0.725 0.015 0
0.735 0.015 0
0.745 0.015 0
0.755 0.015 0
0.765 0.015 0
0.775 0.015 0
0.785 0.015 0
0.795 0.015 0
0.805 0.015 0
0.815 0.015 0
0.825 0.015 0
0.835 0.015 0
0.845 0.015 0
0.855 0.015 0
0.865 0.015 0
0.875 0.015 0
0.885 0.015 0
0.895 0.015 0
0.905 0.015 0
0.915 0.015 0
0.925 0.015 0
0.935 0.015 0
0.945 0.015 0
0.955 0.015 0
0.965 0.015 0
0.975 0.015 0
0.985 0.015 0
0.995 0.015 0
1.005 0.015 0
1.015 0.015 0
1.025 0.015 0
1.035 0.015 0
1.045 0.015 0
1.055 0.015 0
1.065 0.015 0
1.075 0.015 0
1.085 0.015 0
1.095 0.015 0
1.105 0.015 0
1.115 0.015 0
1.125 0.015 0
1.135 0.015 0
1.145 0.015 0
1.155 0.015 0
1.165 0.015 0
1.175 0.015 0
1.185 0.015 0
1.195 0.015 0
1.205 0.015 0
1.215 0.015 0
1.225 0.015 0
1.235 0.015 0
1.245 0.015 0
1.255 0.015 0
1.265 0.015 0
1.275 0.015 0
1.285 0.015 0
1.295 0.015 0
1.305 0.015 0
1.315 0.015 0
1.325 0.015 0
1.335 0.015 0
1.345 0.015 0
1.355 0.015 0
1.365 0.015 0
1.375 0.015 0
1.385 0.015 0
1.395 0.015 0
1.405 0.015 0
1.415 0.015 0
1.425 0.015 0
1.435 0.015 0
1.445 0.015 0
1.455 0.015 0
1.465 0.015 0
1.475 0.015 0
1.485 0.015 0
1.495 0.015 0
1.505 0.015 0
1.515 0.015 0
1.525 0.015 0
1.535 0.015 0
1.545 0.015 0
1.555 0.015 0
1.565 0.015 0
1.575 0.015 0
1.585 0.015 0
1.595 0.015 0
1.605 0.015 0
1.615 0.015 0
1.625 0.015 0
1.635 0.015 0
1.645 0.015 0
1.655 0.015 0
1.665 0.015 0
1.675 0.015 0
1.685 0.015 0
1.695 0.015 0
1.705 0.015 0
1.715 0.015 0
1.725 0.015 0
1.735 0.015 0
1.745 0.015 0
1.755 0.015 0
1.765 0.015 0
1.775 0.015 0
1.785 0.015 0
1.795 0.015 0
1.805 0.015 0
1.815 0.015 0
1.825 0.015 0
1.835 0.015 0
1.845 0.015 0
1.855 0.015 0
1.865 0.015 0
1.875 0.015 0
1.885 0.015 0
1.895 0.015 0
1.905 0.015 0
1.915 0.015 0
1.925 0.015 0
1.935 0.015 0
1.945 0.015 0
1.955 0.015 0
1.965 0.015 0
1.975 0.015 0
1.985 0.015 0
1.995 0.015 0
0.005 0.025 0
0.015 0.025 0
0.025 0.025 0
0.035 0.025 0
0.045 0.025 0
0.055 0.025 0
0.065 0.025 0
0.075 0.025 0
0.085 0.025 0
0.095 0.025 0
0.105 0.025 0
0.115 0.025 0
0.125 0.025 0
0.135 0.025 0
0.145 0.025 0
0.155 0.025 0
0.165 0.025 0
0.175 0.025 0
0.185 0.025 0
0.195 0.025 0
0.205 0.025 0
0.215 0.025 0
0.225 0.025 0
0.235 0.025 0
0.245 0.025 0
0.255 0.025 0
0.265 0.025 0
0.275 0.025 0
0.285 0.025 0
0.295 0.025 0
0.305 0.025 0
0.315 0.025 0
0.325 0.025 0
0.335 0.025 0
0.345 0.025 0
0.355 0.025 0
0.365 0.025 0
0.375 0.025 0
0.385 0.025 0
0.395 0.025 0
0.405 0.025 0
0.415 0.025 0
0.425 0.025 0
0.435 0.025 0
0.445 0.025 0
0.455 0.025 0
0.465 0.025 0
0.475 0.025 0
0.485 0.025 0
0.495 0.025 0
0.505 0.025 0
0.515 0.025 0
0.525 0.025 0
0.535 0.025 0
0.545 0.025 0
0.555 0.025 0
0.565 0.025 0
0.575 0.025 0
0.585 0.025 0
0.595 0.025 0
0.605 0.025 0
0.615 0.025 0
0.625 0.025 0
0.635 0.025 0
0.645 0.025 0
0.655 0.025 0
0.665 0.025 0
0.675 0.025 0
0.685 0.025 0
0.695 0.025 0
0.705 0.025 0
0.715 0.025 0
0.725 0.025 0
0.735 0.025 0
0.745 0.025 0
0.755 0.025 0
0.765 0.025 0
0.775 0.025 0
0.785 0.025 0
0.795 0.025 0
0.805 0.025 0
0.815 0.025 0
0.825 0.025 0
0.835 0.025 0
0.845 0.025 0
0.855 0.025 0
0.865 0.025 0
0.875 0.025 0
0.885 0.025 0
0.895 0.025 0
0.905 0.025 0
0.915 0.025 0
0.925 0.025 0
0.935 0.025 0
0.945 0.025 0
0.955 0.025 0
0.965 0.025 0
0.975 0.025 0
0.985 0.025 0
0.995 0.025 0
1.005 0.025 0
1.015 0.025 0
1.025 0.025 0
1.035 0.025 0
1.045 0.025 0
1.055 0.025 0
1.065 0.025 0
1.075 0.025 0
1.085 0.025 0
1.095 0.025 0
1.105 0.025 0
1.115 0.025 0
1.125 0.025 0
1.135 0.025 0
1.145 0.025 0
1.155 0.025 0
1.165 0.025 0
1.175 0.025 0
1.185 0.025 0
1.195 0.025 0
1.205 0.025 0
1.215 0.025 0
1.225 0.025 0
1.235 0.025 0
1.245 0.025 0
1.255 0.025 0
1.265 0.025 0
1.275 0.025 0
1.285 0.025 0
1.295 0.025 0
1.305 0.025 0
1.315 0.025 0
1.325 0.025 0
1.335 0.025 0
1.345 0.025 0
1.355 0.025 0
1.365 0.025 0
1.375 0.025 0
1.385 0.025 0
1.395 0.025 0
1.405 0.025 0
1.415 0.025 0
1.425 0.025 0
1.435 0.025 0
1.445 0.025 0
1.455 0.025 0
1.465 0.025 0
1.475 0.025 0
1.485 0.025 0
1.495 0.025 0
1.505 0.025 0
1.515 0.025 0
1.525 0.025 0
1.535 0.025 0
1.545 0.025 0
1.555 0.025 0
1.565 0.025 0
1.575 0.025 0
1.585 0.025 0
1.595 0.025 0
1.605 0.025 0
1.615 0.025 0
1.625 0.025 0
1.635 0.025 0
1.645 0.025 0
1.655 0.025 0
1.665 0.025 0
1.675 0.025 0
1.685 0.025 0
1.695 0.025 0
1.705 0.025 0
1.715 0.025 0
1.725 0.025 0
1.735 0.025 0
1.745 0.025 0
1.755 0.025 0
1.765 0.025 0
1.775 0.025 0
1.785 0.025 0
1.795 0.025 0
1.805 0.025 0
1.815 0.025 0
1.825 0.025 0
1.835 0.025 0
1.845 0.025 0
1.855 0.025 0
1.865 0.025 0
1.875 0.025 0
1.885 0.025 0
1.895 0.025 0
1.905 0.025 0
1.915 0.025 0
1.925 0.025 0
1.935 0.025 0
1.945 0.025 0
1.955 0.025 0
1.965 0.025 0
1.975 0.025 0
1.985 0.025 0
1.995 0.025 0
0.005 0.035 0
0.015 0.035 0
0.025 0.035 0
0.035 0.035 0
0.045 0.035 0
0.055 0.035 0
0.065 0.035 0
0.075 0.035 0
0.085 0.035 0
0.095 0.035 0
0.105 0.035 0
0.115 0.035 0
0.125 0.035 0
0.135 0.035 0
0.145 0.035 0
0.155 0.035 0
0.165 0.035 0
0.175 0.035 0
0.185 0.035 0
0.195 0.035 0
0.205 0.035 0
0.215 0.035 0
0.225 0.035 0
0.235 0.035 0
0.245 0.035 0
0.255 0.035 0
0.265 0.035 0
0.275 0.035 0
0.285 0.035 0
0.295 0.035 0
0.305 0.035 0
0.315 0.035 0
0.325 0.035 0
0.335 0.035 0
0.345 0.035 0
0.355 0.035 0
0.365 0.035 0
0.375 0.035 0
0.385 0.035 0
0.395 0.035 0
0.405 0.035 0
0.415 0.035 0
0.425 0.035 0
0.435 0.035 0
0.445 0.035 0
0.455 0.035 0
0.465 0.035 0
0.475 0.035 0
0.485 0.035 0
0.495 0.035 0
0.505 0.035 0
0.515 0.035 0
0.525 0.035 0
0.535 0.035 0
0.545 0.035 0
0.555 0.035 0
0.565 0.035 0
0.575 0.035 0
0.585 0.035 0
0.595 0.035 0
0.605 0.035 0
0.615 0.035 0
0.625 0.035 0
0.635 0.035 0
0.645 0.035 0
0.655 0.035 0
0.665 0.035 0
0.675 0.035 0
0.685 0.035 0
0.695 0.035 0
0.705 0.035 0
0.715 0.035 0
0.725 0.035 0
0.735 0.035 0
0.745 0.035 0
0.755 0.035 0
0.765 0.035 0
0.775 0.035 0
0.785 0.035 0
0.795 0.035 0
0.805 0.035 0
0.815 0.035 0
0.825 0.035 0
0.835 0.035 0
0.845 0.035 0
0.855 0.035 0
0.865 0.035 0
0.875 0.035 0
0.885 0.035 0
0.895 0.035 0
0.905 0.035 0
0.915 0.035 0
0.925 0.035 0
0.935 0.035 0
0.945 0.035 0
0.955 0.035 0
0.965 0.035 0
0.975 0.035 0
0.985 0.035 0
0.995 0.035 0
1.005 0.035 0
1.015 0.035 0
1.025 0.035 0
1.035 0.035 0
1.045 0.035 0
[...]
POINT_DATA 20000
VECTORS velocity float
0.992478 -2.81177e-05 0
0.98552 -6.52186e-05 0
0.97895 -0.000110915 0
0.972628 -0.000163396 0
0.966441 -0.000223458 0
0.960305 -0.000288365 0
0.954155 -0.000360208 0
0.947945 -0.000435159 0
0.94165 -0.000516514 0
0.935257 -0.000599419 0
0.928766 -0.000688088 0
0.922191 -0.000776943 0
0.915554 -0.000870662 0
0.908887 -0.000963445 0
0.902229 -0.00105986 0
0.895624 -0.00115453 0
0.889122 -0.00125124 0
0.882773 -0.00134582 0
0.876632 -0.00144055 0
0.870749 -0.00153319 0
0.865178 -0.0016239 0
0.859966 -0.00171302 0
0.855161 -0.001798 0
0.850803 -0.00188234 0
0.84693 -0.00196028 0
0.843575 -0.00203884 0
0.840766 -0.00210878 0
0.838524 -0.00218084 0
0.836867 -0.00224208 0
0.835806 -0.00230701 0
0.835351 -0.002359 0
0.835504 -0.00241618 0
0.836266 -0.00245836 0
0.837631 -0.00250705 0
0.839594 -0.00253874 0
0.842144 -0.002578 0
0.845269 -0.00259834 0
0.848955 -0.00262698 0
0.853185 -0.0026349 0
0.857941 -0.00265152 0
0.863203 -0.00264574 0
0.86895 -0.00264879 0
0.875161 -0.00262795 0
0.881811 -0.00261586 0
0.888877 -0.00257863 0
0.896333 -0.00254992 0
0.904154 -0.00249515 0
0.912313 -0.00244864 0
0.920783 -0.00237554 0
0.929535 -0.00231047 0
0.938541 -0.00221872 0
0.947772 -0.00213492 0
0.9572 -0.0020248 0
0.966794 -0.00192275 0
0.976525 -0.00179522 0
0.986362 -0.00167611 0
0.996276 -0.0015328 0
1.00624 -0.00139849 0
1.01622 -0.00124169 0
1.02618 -0.00109467 0
1.03611 -0.000927212 0
1.04596 -0.000770493 0
1.05571 -0.000595649 0
1.06534 -0.000432601 0
1.07482 -0.00025392 0
1.08411 -8.81289e-05 0
1.0932 9.07252e-05 0
1.10206 0.000255626 0
1.11066 0.000431036 0
1.11899 0.000591524 0
1.12702 0.000760073 0
1.13473 0.000912881 0
1.1421 0.00107148 0
1.14911 0.00121372 0
1.15575 0.00135974 0
1.162 0.00148899 0
1.16785 0.00162032 0
1.17328 0.00173469 0
1.17828 0.00184981 0
1.18285 0.00194803 0
1.18698 0.00204604 0
1.19065 0.0021274 0
1.19387 0.00220801 0
1.19663 0.0022724 0
1.19894 0.00233592 0
1.20078 0.00238377 0
1.20218 0.00243106 0
1.20313 0.00246328 0
1.20364 0.00249566 0
1.20372 0.00251355 0
1.20337 0.00253268 0
1.20262 0.00253785 0
1.20147 0.00254567 0
1.19994 0.00253987 0
1.19805 0.00253845 0
1.19581 0.00252352 0
1.19324 0.00251492 0
1.19036 0.00249266 0
1.18719 0.00247885 0
1.18375 0.00245087 0
1.18006 0.00243362 0
1.17614 0.00240136 0
1.172 0.00238216 0
1.16768 0.00234676 0
1.16319 0.00232678 0
1.15855 0.0022891 0
1.15377 0.0022692 0
1.14888 0.00222981 0
1.14388 0.00221048 0
1.13881 0.0021697 0
1.13366 0.00215117 0
1.12847 0.00210907 0
1.12323 0.0020913 0
1.11796 0.00204784 0
1.11268 0.00203059 0
1.10739 0.00198557 0
1.10211 0.00196848 0
1.09684 0.00192169 0
1.09159 0.0019043 0
1.08638 0.00185553 0
1.0812 0.00183738 0
1.07607 0.00178644 0
1.07099 0.0017671 0
1.06597 0.0017139 0
1.06101 0.001693 0
1.05611 0.00163754 0
1.05129 0.00161481 0
1.04654 0.0015572 0
1.04187 0.00153251 0
1.03728 0.00147296 0
1.03277 0.00144629 0
1.02835 0.0013851 0
1.02402 0.00135659 0
1.01978 0.00129415 0
1.01563 0.00126405 0
1.01158 0.00120081 0
1.00761 0.00116949 0
1.00374 0.00110595 0
0.999965 0.00107388 0
0.996282 0.00101054 0
0.992692 0.000978254 0
0.989195 0.000915636 0
0.98579 0.000883723 0
0.982475 0.00082231 0
0.979251 0.000791387 0
0.976114 0.00073163 0
0.973065 0.00070231 0
0.970101 0.000644614 0
0.967221 0.000617487 0
0.964422 0.000562197 0
0.961705 0.000537814 0
0.959066 0.000485213 0
0.956505 0.000464064 0
0.954019 0.000414368 0
0.951608 0.000396871 0
0.94927 0.000350232 0
0.947005 0.000336722 0
0.944811 0.000293227 0
0.942687 0.000283947 0
0.940633 0.000243625 0
0.93865 0.000238723 0
0.936736 0.000201547 0
0.934893 0.000201073 0
0.933121 0.000166969 0
0.93142 0.000170874 0
0.929792 0.000139722 0
0.928239 0.000147863 0
0.926761 0.000119509 0
0.925362 0.000131646 0
0.924042 0.000105908 0
0.922804 0.000121718 0
0.92165 9.83902e-05 0
0.920584 0.00011747 0
0.919607 9.63334e-05 0
0.918722 0.000118211 0
0.917932 9.90399e-05 0
0.917239 0.000123187 0
0.916647 0.000105755 0
0.916157 0.000131597 0
0.915772 0.000115687 0
0.915494 0.000142621 0
0.915325 0.000128027 0
0.915266 0.000155434 0
0.915321 0.000141966 0
0.915488 0.000169228 0
0.915771 0.000156719 0
0.916168 0.00018323 0
0.916682 0.000171537 0
0.917312 0.000196728 0
0.918057 0.000185737 0
0.918918 0.000209097 0
0.919893 0.000198742 0
0.920981 0.000219841 0
0.922179 0.000210146 0
0.923484 0.000228616 0
0.924887 0.000219819 0
0.926372 0.000235123 0
0.927899 0.000227987 0
0.92936 0.000238444 0
0.930475 0.000235006 0
0.992458 -8.41295e-05 0
0.985481 -0.00019586 0
0.978894 -0.000331856 0
0.972557 -0.000490661 0
0.966356 -0.000668601 0
0.960207 -0.000865816 0
0.954045 -0.00107786 0
0.947826 -0.00130633 0
0.941521 -0.0015458 0
0.93512 -0.00179902 0
0.928621 -0.00205969 0
0.92204 -0.00233123 0
0.915397 -0.00260682 0
0.908727 -0.00289005 0
0.902065 -0.00317416 0
0.895459 -0.00346229 0
0.888956 -0.0037485 0
0.882608 -0.00403486 0
0.876466 -0.00431706 0
0.870586 -0.00459549 0
0.865017 -0.00486822 0
0.859809 -0.00513338 0
0.855007 -0.00539209 0
0.850654 -0.00563971 0
0.846786 -0.00588086 0
0.843437 -0.00610771 0
0.840633 -0.00632866 0
0.838398 -0.00653238 0
0.836746 -0.00673108 0
0.835693 -0.00690982 0
0.835243 -0.00708451 0
0.835404 -0.00723655 0
0.836172 -0.0073853 0
0.837546 -0.00750867 0
0.839516 -0.00762912 0
0.842075 -0.00772131 0
0.845209 -0.00781043 0
0.848904 -0.00786828 0
0.853143 -0.00792236 0
0.85791 -0.00794206 0
0.863183 -0.00795682 0
0.868942 -0.00793412 0
0.875164 -0.007905 0
0.881827 -0.00783555 0
0.888906 -0.00775809 0
0.896376 -0.00763789 0
0.90421 -0.00750822 0
0.912383 -0.00733407 0
0.920866 -0.00714941 0
0.929631 -0.00691939 0
0.938651 -0.00667847 0
0.947895 -0.00639237 0
0.957335 -0.00609577 0
0.966941 -0.00575532 0
0.976682 -0.00540568 0
0.986529 -0.00501469 0
0.996451 -0.00461675 0
1.00642 -0.00418106 0
1.0164 -0.00374153 0
1.02637 -0.00326883 0
1.0363 -0.00279612 0
1.04615 -0.00229561 0
1.05591 -0.00179946 0
1.06553 -0.00128141 0
1.075 -0.000772395 0
1.08429 -0.000247685 0
1.09337 0.000263223 0
1.10222 0.000783609 0
1.11081 0.00128558 0
1.11913 0.00179103 0
1.12714 0.00227382 0
1.13483 0.00275452 0
1.14219 0.00320885 0
1.14918 0.00365619 0
1.1558 0.0040741 0
1.16203 0.00448089 0
1.16786 0.00485599 0
1.17327 0.00521675 0
1.17825 0.00554437 0
1.18279 0.00585541 0
1.18689 0.00613269 0
1.19054 0.00639215 0
1.19374 0.00661804 0
1.19648 0.00682589 0
1.19876 0.00700106 0
1.20059 0.00715895 0
1.20197 0.00728563 0
1.2029 0.00739667 0
1.20339 0.00747846 0
1.20345 0.007547 0
1.20308 0.0075885 0
1.20232 0.00761979 0
1.20115 0.00762635 0
1.19961 0.00762619 0
1.1977 0.00760349 0
1.19545 0.00757788 0
1.19287 0.00753165 0
1.18998 0.00748642 0
1.18681 0.00742204 0
1.18336 0.00736258 0
1.17966 0.00728489 0
1.17574 0.00721588 0
1.1716 0.00712891 0
1.16728 0.00705416 0
1.16279 0.0069611 0
1.15814 0.00688347 0
1.15337 0.00678656 0
1.14848 0.00670795 0
1.14349 0.00660857 0
1.13841 0.00653001 0
1.13327 0.00642875 0
1.12808 0.00635048 0
1.12284 0.00624731 0
1.11758 0.00616898 0
1.11231 0.0060634 0
1.10702 0.0059842 0
1.10175 0.00587544 0
1.09649 0.00579433 0
1.09125 0.00568147 0
1.08604 0.0055973 0
1.08087 0.0054795 0
1.07574 0.00539119 0
1.07067 0.00526773 0
1.06565 0.00517437 0
1.0607 0.00504479 0
1.05581 0.00494576 0
1.051 0.0048099 0
1.04626 0.00470489 0
1.04159 0.00456294 0
1.03701 0.00445202 0
1.03251 0.00430449 0
1.0281 0.00418808 0
1.02378 0.00403582 0
1.01955 0.0039147 0
1.0154 0.00375879 0
1.01136 0.00363404 0
1.0074 0.00347581 0
1.00354 0.00334877 0
0.999769 0.0031897 0
0.996094 0.00306189 0
0.992512 0.00290354 0
0.989023 0.0027766 0
0.985624 0.00262056 0
0.982318 0.00249619 0
0.9791 0.00234402 0
0.975972 0.0022239 0
0.972929 0.00207707 0
0.969972 0.00196282 0
0.967098 0.00182267 0
0.964308 0.00171578 0
0.961596 0.00158349 0
0.958965 0.00148527 0
0.956409 0.00136183 0
0.95393 0.00127341 0
0.951525 0.00115961 0
0.949194 0.0010819 0
0.946933 0.000978299 0
0.944745 0.000911966 0
0.942626 0.000818928 0
0.940579 0.000764388 0
0.9386 0.000682062 0
0.936692 0.000639486 0
0.934853 0.000567816 0
0.933086 0.000537129 0
0.931389 0.000475872 0
0.929766 0.00045676 0
0.928216 0.000405497 0
0.926743 0.000397423 0
0.925346 0.000355576 0
0.92403 0.000357794 0
0.922795 0.00032465 0
0.921645 0.000336226 0
0.920581 0.000310955 0
0.919607 0.000330794 0
0.918724 0.000312478 0
0.917937 0.000339353 0
0.917246 0.000327009 0
0.916655 0.000359589 0
0.916167 0.0003522 0
0.915783 0.000389089 0
0.915506 0.000385624 0
0.915337 0.000425393 0
0.91528 0.000424838 0
0.915334 0.000466059 0
0.915503 0.000467438 0
0.915785 0.000508717 0
0.916183 0.000511113 0
0.916696 0.000551131 0
0.917326 0.000553716 0
0.91807 0.000591274 0
0.91893 0.000593349 0
0.919903 0.000627437 0
0.920991 0.000628511 0
0.922187 0.000658377 0
0.923491 0.000658298 0
0.924892 0.00068339 0
0.926377 0.000682503 0
0.9279 0.000701778 0
0.929361 0.000700922 0
0.930474 0.00071016 0
0.992417 -0.000140095 0
0.985403 -0.000325659 0
0.978782 -0.000552574 0
0.972414 -0.000815782 0
0.966186 -0.00111318 0
0.960012 -0.00143947 0
0.953827 -0.00179435 0
0.947587 -0.00217183 0
0.941264 -0.00257302 0
0.934845 -0.00299104 0
0.928333 -0.00342794 0
0.921738 -0.0038761 0
0.915086 -0.00433799 0
0.908406 -0.00480571 0
0.90174 -0.00528154 0
0.895129 -0.00575802 0
0.888625 -0.00623671 0
0.882275 -0.00671139 0
0.876137 -0.00718237 0
0.870259 -0.00764551 0
0.864697 -0.00809932 0
0.859494 -0.00854251 0
0.854701 -0.00897128 0
0.850355 -0.00938776 0
0.846499 -0.00978537 0
0.843159 -0.01017 0
0.840368 -0.0105319 0
0.838142 -0.0108808 0
0.836504 -0.0112036 0
0.835462 -0.0115137 0
0.835028 -0.0117943 0
0.835201 -0.0120626 0
0.835985 -0.012298 0
0.837372 -0.0125208 0
0.83936 -0.0127072 0
0.841934 -0.0128802 0
0.845087 -0.0130126 0
0.8488 -0.0131299 0
0.85306 -0.0132024 0
0.857846 -0.0132573 0
0.863142 -0.0132628 0
0.868923 -0.0132479 0
0.875171 -0.013179 0
0.881858 -0.0130865 0
0.888963 -0.0129359 0
0.896459 -0.0127589 0
0.904321 -0.0125204 0
0.912521 -0.0122532 0
0.921031 -0.0119223 0
0.929824 -0.0115614 0
0.93887 -0.0111362 0
0.94814 -0.0106811 0
0.957604 -0.0101628 0
0.967233 -0.00961626 0
0.976995 -0.00900959 0
0.986861 -0.0083779 0
0.9968 -0.00769098 0
1.00678 -0.00698391 0
1.01678 -0.0062282 0
1.02675 -0.0054586 0
1.03668 -0.00464838 0
1.04654 -0.00383165 0
1.05629 -0.00298339 0
1.06591 -0.00213673 0
1.07537 -0.00126828 0
1.08465 -0.000409902 0
1.09371 0.000460319 0
1.10254 0.00131206 0
1.11111 0.00216589 0
1.11939 0.00299327 0
1.12738 0.00381357 0
1.13504 0.00460023 0
1.14236 0.00537157 0
1.14931 0.00610312 0
1.15589 0.00681229 0
1.16208 0.0074768 0
1.16786 0.00811327 0
1.17323 0.00870158 0
1.17817 0.00925776 0
1.18267 0.00976371 0
1.18672 0.0102351 0
1.19033 0.0106556 0
1.19348 0.0110406 0
1.19617 0.0113755 0
1.19841 0.0116756 0
1.2002 0.0119276 0
1.20153 0.0121469 0
1.20242 0.0123209 0
1.20287 0.0124657 0
1.20289 0.0125688 0
1.2025 0.0126471 0
1.2017 0.0126879 0
1.20051 0.0127089 0
1.19894 0.0126967 0
1.19701 0.0126703 0
1.19473 0.0126147 0
1.19213 0.0125508 0
1.18923 0.0124611 0
1.18604 0.012369 0
1.18258 0.0122539 0
1.17887 0.0121418 0
1.17494 0.0120088 0
1.1708 0.0118836 0
1.16647 0.0117387 0
1.16198 0.0116061 0
1.15734 0.0114538 0
1.15256 0.0113175 0
1.14767 0.0111608 0
1.14269 0.0110231 0
1.13762 0.0108636 0
1.13249 0.0107257 0
1.1273 0.0105638 0
1.12208 0.0104254 0
1.11682 0.0102606 0
1.11156 0.0101208 0
1.10629 0.00995189 0
1.10102 0.00980912 0
1.09577 0.00963467 0
1.09055 0.00948717 0
1.08535 0.00930559 0
1.0802 0.00915157 0
1.07509 0.00896144 0
1.07003 0.00879933 0
1.06503 0.00859957 0
1.06009 0.0084282 0
1.05521 0.00821819 0
1.05041 0.00803689 0
1.04569 0.00781657 0
1.04104 0.00762524 0
1.03648 0.00739512 0
1.03199 0.00719428 0
1.0276 0.00695541 0
1.02329 0.00674615 0
1.01908 0.00650009 0
1.01495 0.00628404 0
1.01092 0.00603278 0
1.00698 0.00581199 0
1.00313 0.00555787 0
0.999378 0.00533475 0
0.995718 0.0050803 0
0.992152 0.00485749 0
0.988677 0.00460539 0
0.985295 0.00438566 0
0.982002 0.00413857 0
0.978801 0.00392469 0
0.975685 0.0036852 0
0.972658 0.00347987 0
0.969714 0.00325039 0
0.966855 0.00305613 0
0.964076 0.00283884 0
0.96138 0.00265791 0
0.95876 0.00245469 0
0.956219 0.00228905 0
0.953751 0.00210147 0
0.951359 0.00195273 0
0.949038 0.00178198 0
0.946791 0.00165138 0
0.944612 0.0014983 0
0.942506 0.00138668 0
0.940467 0.00125174 0
0.938501 0.00115954 0
0.936601 0.00104285 0
0.934773 0.000970107 0
0.933013 0.000871451 0
0.931327 0.000817821 0
0.929711 0.000736645 0
0.928171 0.000701419 0
0.926704 0.000636875 0
0.925316 0.000619002 0
0.924006 0.000569977 0
0.922779 0.000568097 0
0.921634 0.000533249 0
0.920576 0.000545733 0
0.919606 0.000523529 0
0.918729 0.00054852 0
0.917945 0.000537279 0
0.917259 0.000572745 0
0.916672 0.000570688 0
0.916186 0.000614472 0
0.915805 0.000619766 0
0.91553 0.000669642 0
0.915364 0.000680445 0
0.915307 0.00073417 0
0.915363 0.000748677 0
0.915531 0.000804046 0
0.915814 0.000820527 0
0.91621 0.000875426 0
0.916724 0.000892274 0
0.917351 0.000944744 0
0.918096 0.000960533 0
0.918953 0.00100886 0
0.919927 0.00102244 0
0.921009 0.00106529 0
0.922206 0.00107596 0
0.923504 0.00111244 0
0.924905 0.00112012 0
0.926383 0.00114952 0
0.927906 0.00115467 0
0.929361 0.0011745 0
0.930474 0.00117694 0
0.992355 -0.00019557 0
0.985286 -0.000455016 0
0.978615 -0.000771299 0
0.972202 -0.00113968 0
0.965932 -0.00155365 0
0.95972 -0.00201073 0
0.953501 -0.00250419 0
0.94723 -0.00303332 0
0.940878 -0.00359073 0
0.934435 -0.00417694 0
0.9279 -0.00478374 0
0.921288 -0.00541233 0
0.914619 -0.00605391 0
0.907928 -0.00670981 0
0.901251 -0.00737124 0
0.894636 -0.00803911 0
0.888127 -0.00870545 0
0.881779 -0.00937026 0
0.875642 -0.0100273 0
0.869772 -0.0106752 0
0.864214 -0.0113102 0
0.859023 -0.0119292 0
0.854239 -0.0125316 0
0.84991 -0.013112 0
0.846064 -0.0136737 0
0.842743 -0.0142083 0
0.839965 -0.0147229 0
0.83776 -0.0152061 0
0.836137 -0.0156689 0
0.835117 -0.0160964 0
0.8347 -0.0165031 0
0.834896 -0.0168705 0
0.835699 -0.0172165 0
0.837111 -0.0175189 0
0.83912 -0.0177984 0
0.841722 -0.0180294 0
0.844898 -0.0182351 0
0.848641 -0.0183868 0
0.852929 -0.0185096 0
0.857749 -0.0185725 0
0.863076 -0.0186023 0
0.868893 -0.0185658 0
0.875175 -0.0184915 0
0.881901 -0.018345 0
0.889045 -0.018156 0
0.896581 -0.0178895 0
0.904483 -0.0175766 0
0.912725 -0.0171824 0
0.921276 -0.0167391 0
0.93011 -0.0162124 0
0.939195 -0.0156359 0
0.948504 -0.0149762 0
0.958005 -0.014268 0
0.967667 -0.0134796 0
0.977461 -0.0126463 0
0.987355 -0.0117383 0
0.997319 -0.0107914 0
1.00732 -0.00977799 0
1.01733 -0.00873385 0
1.02732 -0.00763335 0
1.03726 -0.00651218 0
1.04711 -0.00534661 0
1.05686 -0.00417172 0
1.06647 -0.00296554 0
1.07591 -0.00176215 0
1.08517 -0.000541164 0
1.09421 0.000664742 0
1.103 0.00187459 0
1.11154 0.00305746 0
1.11978 0.00423122 0
1.12772 0.005367 0
1.13533 0.00648172 0
1.1426 0.00754881 0
1.1495 0.00858441 0
1.15602 0.00956438 0
1.16215 0.0105043 0
1.16786 0.0113825 0
1.17316 0.0122141 0
1.17803 0.01298 0
1.18246 0.0136951 0
1.18645 0.0143425 0
1.18998 0.014937 0
1.19307 0.0154638 0
1.19569 0.015938 0
1.19787 0.0163464 0
1.19959 0.0167043 0
1.20086 0.0169998 0
1.20169 0.017249 0
1.20209 0.0174405 0
1.20206 0.0175911 0
1.20161 0.0176897 0
1.20076 0.017754 0
1.19953 0.0177724 0
1.19792 0.0177639 0
1.19595 0.0177156 0
1.19364 0.017648 0
1.19102 0.0175464 0
1.18809 0.0174332 0
1.18487 0.0172909 0
1.1814 0.0171443 0
1.17768 0.0169726 0
1.17373 0.0168032 0
1.16958 0.0166115 0
1.16525 0.0164278 0
1.16076 0.0162234 0
1.15611 0.0160319 0
1.15134 0.01582 0
1.14646 0.0156249 0
1.14148 0.0154085 0
1.13642 0.015212 0
1.1313 0.0149925 0
1.12613 0.0147951 0
1.12092 0.0145724 0
1.11568 0.0143732 0
1.11043 0.0141459 0
1.10518 0.0139433 0
1.09993 0.0137094 0
1.0947 0.0135009 0
1.08949 0.0132583 0
1.08432 0.0130415 0
1.07918 0.0127881 0
1.0741 0.0125607 0
1.06906 0.0122945 0
1.06408 0.0120546 0
1.05916 0.0117745 0
1.05432 0.0115209 0
1.04954 0.0112263 0
1.04484 0.0109586 0
1.04021 0.0106499 0
1.03567 0.0103684 0
1.03121 0.0100466 0
1.02684 0.00975251 0
1.02256 0.00941937 0
1.01837 0.00911471 0
1.01427 0.00877276 0
1.01026 0.00846013 0
1.00634 0.00811241 0
1.00252 0.00779497 0
0.998789 0.00744489 0
0.995155 0.00712619 0
0.99161 0.00677744 0
0.98816 0.00646127 0
0.984799 0.0061176 0
0.98153 0.00580784 0
0.978348 0.00547297 0
0.975257 0.00517341 0
0.972249 0.00485088 0
0.969329 0.00456514 0
0.966488 0.00425821 0
0.963732 0.00398958 0
0.961053 0.00370115 0
0.958455 0.00345254 0
0.95593 0.00318504 0
0.953484 0.00295891 0
0.951108 0.00271432 0
0.948807 0.0025126 0
0.946575 0.00229239 0
0.944416 0.00211647 0
0.942323 0.00192158 0
0.940304 0.00177234 0
0.938349 0.0016032 0
0.936467 0.00148092 0
0.934651 0.00133747 0
0.932908 0.00124192 0
0.931233 0.00112361 0
0.929632 0.00105405 0
0.928101 0.000959898 0
0.926649 0.000915093 0
0.92527 0.000843708 0
0.923972 0.000821986 0
0.922752 0.000771619 0
0.921618 0.000770917 0
0.920567 0.000739512 0
0.919607 0.000757432 0
0.918736 0.000742687 0
0.917959 0.000776561 0
0.917278 0.000775991 0
0.916696 0.000822953 0
0.916215 0.000833956 0
0.915838 0.000891012 0
0.915566 0.000910937 0
0.915402 0.000975041 0
0.915348 0.00100125 0
0.915404 0.00106938 0
0.915574 0.00109931 0
0.915856 0.00116852 0
0.916254 0.00119974 0
0.916764 0.00126729 0
0.917393 0.00129758 0
0.918132 0.00136095 0
0.91899 0.00138841 0
0.919957 0.00144555 0
0.921041 0.00146877 0
0.922228 0.00151819 0
0.923527 0.0015365 0
0.924918 0.00157736 0
0.926397 0.0015909 0
0.92791 0.0016219 0
0.929365 0.00163066 0
0.93047 0.0016455 0
0.992273 -0.000250724 0
0.98513 -0.000582894 0
0.978393 -0.000988667 0
0.971919 -0.00145977 0
0.965595 -0.00199119 0
0.959333 -0.00257514 0
0.953068 -0.00320888 0
0.946755 -0.00388437 0
0.940367 -0.00460049 0
0.93389 -0.00534848 0
0.927327 -0.00612821 0
0.920689 -0.0069302 0
0.914001 -0.00775467 0
0.907292 -0.00859182 0
0.900604 -0.0094417 0
0.893978 -0.0102949 0
0.887467 -0.0111509 0
0.881117 -0.0120016 0
0.874986 -0.0128453 0
0.869118 -0.0136762 0
0.863574 -0.0144913 0
0.858392 -0.0152876 0
0.853627 -0.0160604 0
0.84931 -0.0168103 0
0.845488 -0.01753 0
0.842182 -0.0182243 0
0.83943 -0.0188831 0
0.837243 -0.0195147 0
0.835648 -0.0201062 0
0.834648 -0.0206695 0
0.834261 -0.0211881 0
0.83448 -0.0216772 0
0.835315 -0.0221168 0
0.836753 -0.0225249 0
0.838797 -0.0228779 0
0.841428 -0.0231963 0
0.844643 -0.0234531 0
0.84842 -0.0236708 0
0.85275 -0.0238196 0
0.857609 -0.0239238 0
0.862982 -0.0239511 0
0.868844 -0.0239275 0
0.875176 -0.023819 0
0.881951 -0.023653 0
0.889148 -0.0233949 0
0.896737 -0.0230733 0
0.904694 -0.0226536 0
0.91299 -0.022166 0
0.921597 -0.0215763 0
0.930484 -0.0209163 0
0.939623 -0.0201531 0
0.948983 -0.0193201 0
0.958532 -0.0183858 0
0.968241 -0.0173852 0
0.978076 -0.0162888 0
0.988007 -0.0151326 0
0.998002 -0.0138896 0
1.00803 -0.0125964 0
1.01806 -0.0112283 0
1.02807 -0.00982229 0
1.03801 -0.00835584 0
1.04787 -0.00686574 0
1.05761 -0.00533152 0
1.0672 -0.00378928 0
1.07663 -0.0022203 0
1.08585 -0.000659497 0
1.09485 0.000910399 0
1.10361 0.00245612 0
1.11209 0.00399378 0
1.12028 0.00549217 0
1.12816 0.00696652 0
1.13571 0.00838803 0
1.1429 0.00977131 0
1.14972 0.0110902 0
1.15616 0.0123589 0
1.1622 0.013554 0
1.16784 0.0146896 0
1.17305 0.015745 0
1.17782 0.0167343 0
1.18216 0.0176396 0
1.18606 0.0184751 0
1.1895 0.0192255 0
1.19249 0.0199052 0
1.19503 0.0205012 0
1.19712 0.0210283 0
1.19875 0.0214752 0
1.19994 0.0218576 0
1.20069 0.0221653 0
1.20101 0.0224146 0
1.20091 0.0225963 0
1.2004 0.0227274 0
1.19949 0.0227986 0
1.1982 0.0228282 0
1.19653 0.0228061 0
1.19452 0.0227518 0
1.19217 0.0226537 0
1.1895 0.0225331 0
1.18654 0.0223758 0
1.1833 0.0222052 0
1.1798 0.0220041 0
1.17606 0.0217981 0
1.17211 0.0215663 0
1.16795 0.0213371 0
1.16361 0.0210852 0
1.15911 0.0208422 0
1.15447 0.0205781 0
1.14971 0.0203279 0
1.14483 0.0200567 0
1.13986 0.0198032 0
1.13481 0.0195277 0
1.12971 0.0192726 0
1.12455 0.0189932 0
1.11936 0.0187361 0
1.11414 0.0184518 0
1.10892 0.018191 0
1.10369 0.0178996 0
1.09847 0.0176323 0
1.09326 0.0173312 0
1.08808 0.0170543 0
1.08293 0.0167405 0
1.07783 0.016451 0
1.07277 0.0161219 0