# vtk DataFile Version 3.0
Flow field at step 700
ASCII
DATASET STRUCTURED_GRID
DIMENSIONS 200 100 1
POINTS 20000 float
0.005 0.005 0
0.015 0.005 0
0.025 0.005 0
0.035 0.005 0
0.045 0.005 0
0.055 0.005 0
0.065 0.005 0
0.075 0.005 0
0.085 0.005 0
0.095 0.005 0
0.105 0.005 0
0.115 0.005 0
0.125 0.005 0
0.135 0.005 0
0.145 0.005 0
0.155 0.005 0
0.165 0.005 0
0.175 0.005 0
0.185 0.005 0
0.195 0.005 0
0.205 0.005 0
0.215 0.005 0
0.225 0.005 0
0.235 0.005 0
0.245 0.005 0
0.255 0.005 0
0.265 0.005 0
0.275 0.005 0
0.285 0.005 0
0.295 0.005 0
0.305 0.005 0
0.315 0.005 0
0.325 0.005 0
0.335 0.005 0
0.345 0.005 0
0.355 0.005 0
0.365 0.005 0
0.375 0.005 0
0.385 0.005 0
0.395 0.005 0
0.405 0.005 0
0.415 0.005 0
0.425 0.005 0
0.435 0.005 0
0.445 0.005 0
0.455 0.005 0
0.465 0.005 0
0.475 0.005 0
0.485 0.005 0
0.495 0.005 0
0.505 0.005 0
0.515 0.005 0
0.525 0.005 0
0.535 0.005 0
0.545 0.005 0
0.555 0.005 0
0.565 0.005 0
0.575 0.005 0
0.585 0.005 0
0.595 0.005 0
0.605 0.005 0
0.615 0.005 0
0.625 0.005 0
0.635 0.005 0
0.645 0.005 0
0.655 0.005 0
0.665 0.005 0
0.675 0.005 0
0.685 0.005 0
0.695 0.005 0
0.705 0.005 0
0.715 0.005 0
0.725 0.005 0
0.735 0.005 0
0.745 0.005 0
0.755 0.005 0
0.765 0.005 0
0.775 0.005 0
0.785 0.005 0
0.795 0.005 0
0.805 0.005 0
0.815 0.005 0
0.825 0.005 0
0.835 0.005 0
0.845 0.005 0
0.855 0.005 0
0.865 0.005 0
0.875 0.005 0
0.885 0.005 0
0.895 0.005 0
0.905 0.005 0
0.915 0.005 0
0.925 0.005 0
0.935 0.005 0
0.945 0.005 0
0.955 0.005 0
0.965 0.005 0
0.975 0.005 0
0.985 0.005 0
0.995 0.005 0
1.005 0.005 0
1.015 0.005 0
1.025 0.005 0
1.035 0.005 0
1.045 0.005 0
1.055 0.005 0
1.065 0.005 0
1.075 0.005 0
1.085 0.005 0
1.095 0.005 0
1.105 0.005 0
1.115 0.005 0
1.125 0.005 0
1.135 0.005 0
1.145 0.005 0
1.155 0.005 0
1.165 0.005 0
1.175 0.005 0
1.185 0.005 0
1.195 0.005 0
1.205 0.005 0
1.215 0.005 0
1.225 0.005 0
1.235 0.005 0
1.245 0.005 0
1.255 0.005 0
1.265 0.005 0
1.275 0.005 0
1.285 0.005 0
1.295 0.005 0
1.305 0.005 0
1.315 0.005 0
1.325 0.005 0
1.335 0.005 0
1.345 0.005 0
1.355 0.005 0
1.365 0.005 0
1.375 0.005 0
1.385 0.005 0
1.395 0.005 0
1.405 0.005 0
1.415 0.005 0
1.425 0.005 0
1.435 0.005 0
1.445 0.005 0
1.455 0.005 0
1.465 0.005 0
1.475 0.005 0
1.485 0.005 0
1.495 0.005 0
1.505 0.005 0
1.515 0.005 0
1.525 0.005 0
1.535 0.005 0
1.545 0.005 0
1.555 0.005 0
1.565 0.005 0
1.575 0.005 0
1.585 0.005 0
1.595 0.005 0
1.605 0.005 0
1.615 0.005 0
1.625 0.005 0
1.635 0.005 0
1.645 0.005 0
1.655 0.005 0
1.665 0.005 0
1.675 0.005 0
1.685 0.005 0
1.695 0.005 0
1.705 0.005 0
1.715 0.005 0
1.725 0.005 0
1.735 0.005 0
1.745 0.005 0
1.755 0.005 0
1.765 0.005 0
1.775 0.005 0
1.785 0.005 0
1.795 0.005 0
1.805 0.005 0
1.815 0.005 0
1.825 0.005 0
1.835 0.005 0
1.845 0.005 0
1.855 0.005 0
1.865 0.005 0
1.875 0.005 0
1.885 0.005 0
1.895 0.005 0
1.905 0.005 0
1.915 0.005 0
1.925 0.005 0
1.935 0.005 0
1.945 0.005 0
1.955 0.005 0
1.965 0.005 0
1.975 0.005 0
1.985 0.005 0
1.995 0.005 0
0.005 0.015 0
0.015 0.015 0
0.025 0.015 0
0.035 0.015 0
0.045 0.015 0
0.055 0.015 0
0.065 0.015 0
0.075 0.015 0
0.085 0.015 0
0.095 0.015 0
0.105 0.015 0
0.115 0.015 0
0.125 0.015 0
0.135 0.015 0
0.145 0.015 0
0.155 0.015 0
0.165 0.015 0
0.175 0.015 0
0.185 0.015 0
0.195 0.015 0
0.205 0.015 0
0.215 0.015 0
0.225 0.015 0
0.235 0.015 0
0.245 0.015 0
0.255 0.015 0
0.265 0.015 0
0.275 0.015 0
0.285 0.015 0
0.295 0.015 0
0.305 0.015 0
0.315 0.015 0
0.325 0.015 0
0.335 0.015 0
0.345 0.015 0
0.355 0.015 0
0.365 0.015 0
0.375 0.015 0
0.385 0.015 0
0.395 0.015 0
0.405 0.015 0
0.415 0.015 0
0.425 0.015 0
0.435 0.015 0
0.445 0.015 0
0.455 0.015 0
0.465 0.015 0
0.475 0.015 0
0.485 0.015 0
0.495 0.015 0
0.505 0.015 0
0.515 0.015 0
0.525 0.015 0
0.535 0.015 0
0.545 0.015 0
0.555 0.015 0
0.565 0.015 0
0.575 0.015 0
0.585 0.015 0
0.595 0.015 0
0.605 0.015 0
0.615 0.015 0
0.625 0.015 0
0.635 0.015 0
0.645 0.015 0
0.655 0.015 0
0.665 0.015 0
0.675 0.015 0
0.685 0.015 0
0.695 0.015 0
0.705 0.015 0
0.715 0.015 0
0.725 0.015 0
0.735 0.015 0
0.745 0.015 0
0.755 0.015 0
0.765 0.015 0
0.775 0.015 0
0.785 0.015 0
0.795 0.015 0
0.805 0.015 0
0.815 0.015 0
0.825 0.015 0
0.835 0.015 0
0.845 0.015 0
0.855 0.015 0
0.865 0.015 0
0.875 0.015 0
0.885 0.015 0
0.895 0.015 0
0.905 0.015 0
0.915 0.015 0
0.925 0.015 0
0.935 0.015 0
0.945 0.015 0
0.955 0.015 0
0.965 0.015 0
0.975 0.015 0
0.985 0.015 0
0.995 0.015 0
1.005 0.015 0
1.015 0.015 0
1.025 0.015 0
1.035 0.015 0
1.045 0.015 0
1.055 0.015 0
1.065 0.015 0
1.075 0.015 0
1.085 0.015 0
1.095 0.015 0
1.105 0.015 0
1.115 0.015 0
1.125 0.015 0
1.135 0.015 0
1.145 0.015 0
1.155 0.015 0
1.165 0.015 0
1.175 0.015 0
1.185 0.015 0
1.195 0.015 0
1.205 0.015 0
1.215 0.015 0
1.225 0.015 0
1.235 0.015 0
1.245 0.015 0
1.255 0.015 0
1.265 0.015 0
1.275 0.015 0
1.285 0.015 0
1.295 0.015 0
1.305 0.015 0
1.315 0.015 0
1.325 0.015 0
1.335 0.015 0
1.345 0.015 0
1.355 0.015 0
1.365 0.015 0
1.375 0.015 0
1.385 0.015 0
1.395 0.015 0
1.405 0.015 0
1.415 0.015 0
1.425 0.015 0
1.435 0.015 0
1.445 0.015 0
1.455 0.015 0
1.465 0.015 0
1.475 0.015 0
1.485 0.015 0
1.495 0.015 0
1.505 0.015 0
1.515 0.015 0
1.525 0.015 0
1.535 0.015 0
1.545 0.015 0
1.555 0.015 0
1.565 0.015 0
1.575 0.015 0
1.585 0.015 0
1.595 0.015 0
1.605 0.015 0
1.615 0.015 0
1.625 0.015 0
1.635 0.015 0
1.645 0.015 0
1.655 0.015 0
1.665 0.015 0
1.675 0.015 0
1.685 0.015 0
1.695 0.015 0
1.705 0.015 0
1.715 0.015 0
1.725 0.015 0
1.735 0.015 0
1.745 0.015 0
1.755 0.015 0
1.765 0.015 0
1.775 0.015 0
1.785 0.015 0
1.795 0.015 0
1.805 0.015 0
1.815 0.015 0
1.825 0.015 0
1.835 0.015 0
1.845 0.015 0
1.855 0.015 0
1.865 0.015 0
1.875 0.015 0
1.885 0.015 0
1.895 0.015 0
1.905 0.015 0
1.915 0.015 0
1.925 0.015 0
1.935 0.015 0
1.945 0.015 0
1.955 0.015 0
1.965 0.015 0
1.975 0.015 0
1.985 0.015 0
1.995 0.015 0
0.005 0.025 0
0.015 0.025 0
0.025 0.025 0
0.035 0.025 0
0.045 0.025 0
0.055 0.025 0
0.065 0.025 0
0.075 0.025 0
0.085 0.025 0
0.095 0.025 0
0.105 0.025 0
0.115 0.025 0
0.125 0.025 0
0.135 0.025 0
0.145 0.025 0
0.155 0.025 0
0.165 0.025 0
0.175 0.025 0
0.185 0.025 0
0.195 0.025 0
0.205 0.025 0
0.215 0.025 0
0.225 0.025 0
0.235 0.025 0
0.245 0.025 0
0.255 0.025 0
0.265 0.025 0
0.275 0.025 0
0.285 0.025 0
0.295 0.025 0
0.305 0.025 0
0.315 0.025 0
0.325 0.025 0
0.335 0.025 0
0.345 0.025 0
0.355 0.025 0
0.365 0.025 0
0.375 0.025 0
0.385 0.025 0
0.395 0.025 0
0.405 0.025 0
0.415 0.025 0
0.425 0.025 0
0.435 0.025 0
0.445 0.025 0
0.455 0.025 0
0.465 0.025 0
0.475 0.025 0
0.485 0.025 0
0.495 0.025 0
0.505 0.025 0
0.515 0.025 0
0.525 0.025 0
0.535 0.025 0
0.545 0.025 0
0.555 0.025 0
0.565 0.025 0
0.575 0.025 0
0.585 0.025 0
0.595 0.025 0
0.605 0.025 0
0.615 0.025 0
0.625 0.025 0
0.635 0.025 0
0.645 0.025 0
0.655 0.025 0
0.665 0.025 0
0.675 0.025 0
0.685 0.025 0
0.695 0.025 0
0.705 0.025 0
0.715 0.025 0
0.725 0.025 0
0.735 0.025 0
0.745 0.025 0
0.755 0.025 0
0.765 0.025 0
0.775 0.025 0
0.785 0.025 0
0.795 0.025 0
0.805 0.025 0
0.815 0.025 0
0.825 0.025 0
0.835 0.025 0
0.845 0.025 0
0.855 0.025 0
0.865 0.025 0
0.875 0.025 0
0.885 0.025 0
0.895 0.025 0
0.905 0.025 0
0.915 0.025 0
0.925 0.025 0
0.935 0.025 0
0.945 0.025 0
0.955 0.025 0
0.965 0.025 0
0.975 0.025 0
0.985 0.025 0
0.995 0.025 0
1.005 0.025 0
1.015 0.025 0
1.025 0.025 0
1.035 0.025 0
1.045 0.025 0
1.055 0.025 0
1.065 0.025 0
1.075 0.025 0
1.085 0.025 0
1.095 0.025 0
1.105 0.025 0
1.115 0.025 0
1.125 0.025 0
1.135 0.025 0
1.145 0.025 0
1.155 0.025 0
1.165 0.025 0
1.175 0.025 0
1.185 0.025 0
1.195 0.025 0
1.205 0.025 0
1.215 0.025 0
1.225 0.025 0
1.235 0.025 0
1.245 0.025 0
1.255 0.025 0
1.265 0.025 0
1.275 0.025 0
1.285 0.025 0
1.295 0.025 0
1.305 0.025 0
1.315 0.025 0
1.325 0.025 0
1.335 0.025 0
1.345 0.025 0
1.355 0.025 0
1.365 0.025 0
1.375 0.025 0
1.385 0.025 0
1.395 0.025 0
1.405 0.025 0
1.415 0.025 0
1.425 0.025 0
1.435 0.025 0
1.445 0.025 0
1.455 0.025 0
1.465 0.025 0
1.475 0.025 0
1.485 0.025 0
1.495 0.025 0
1.505 0.025 0
1.515 0.025 0
1.525 0.025 0
1.535 0.025 0
1.545 0.025 0
1.555 0.025 0
1.565 0.025 0
1.575 0.025 0
1.585 0.025 0
1.595 0.025 0
1.605 0.025 0
1.615 0.025 0
1.625 0.025 0
1.635 0.025 0
1.645 0.025 0
1.655 0.025 0
1.665 0.025 0
1.675 0.025 0
1.685 0.025 0
1.695 0.025 0
1.705 0.025 0
1.715 0.025 0
1.725 0.025 0
1.735 0.025 0
1.745 0.025 0
1.755 0.025 0
1.765 0.025 0
1.775 0.025 0
1.785 0.025 0
1.795 0.025 0
1.805 0.025 0
1.815 0.025 0
1.825 0.025 0
1.835 0.025 0
1.845 0.025 0
1.855 0.025 0
1.865 0.025 0
1.875 0.025 0
1.885 0.025 0
1.895 0.025 0
1.905 0.025 0
1.915 0.025 0
1.925 0.025 0
1.935 0.025 0
1.945 0.025 0
1.955 0.025 0
1.965 0.025 0
1.975 0.025 0
1.985 0.025 0
1.995 0.025 0
0.005 0.035 0
0.015 0.035 0
0.025 0.035 0
0.035 0.035 0
0.045 0.035 0
0.055 0.035 0
0.065 0.035 0
0.075 0.035 0
0.085 0.035 0
0.095 0.035 0
0.105 0.035 0
0.115 0.035 0
0.125 0.035 0
0.135 0.035 0
0.145 0.035 0
0.155 0.035 0
0.165 0.035 0
0.175 0.035 0
0.185 0.035 0
0.195 0.035 0
0.205 0.035 0
0.215 0.035 0
0.225 0.035 0
0.235 0.035 0
0.245 0.035 0
0.255 0.035 0
0.265 0.035 0
0.275 0.035 0
0.285 0.035 0
0.295 0.035 0
0.305 0.035 0
0.315 0.035 0
0.325 0.035 0
0.335 0.035 0
0.345 0.035 0
0.355 0.035 0
0.365 0.035 0
0.375 0.035 0
0.385 0.035 0
0.395 0.035 0
0.405 0.035 0
0.415 0.035 0
0.425 0.035 0
0.435 0.035 0
0.445 0.035 0
0.455 0.035 0
0.465 0.035 0
0.475 0.035 0
0.485 0.035 0
0.495 0.035 0
0.505 0.035 0
0.515 0.035 0
0.525 0.035 0
0.535 0.035 0
0.545 0.035 0
0.555 0.035 0
0.565 0.035 0
0.575 0.035 0
0.585 0.035 0
0.595 0.035 0
0.605 0.035 0
0.615 0.035 0
0.625 0.035 0
0.635 0.035 0
0.645 0.035 0
0.655 0.035 0
0.665 0.035 0
0.675 0.035 0
0.685 0.035 0
0.695 0.035 0
0.705 0.035 0
0.715 0.035 0
0.725 0.035 0
0.735 0.035 0
0.745 0.035 0
0.755 0.035 0
0.765 0.035 0
0.775 0.035 0
0.785 0.035 0
0.795 0.035 0
0.805 0.035 0
0.815 0.035 0
0.825 0.035 0
0.835 0.035 0
0.845 0.035 0
0.855 0.035 0
0.865 0.035 0
0.875 0.035 0
0.885 0.035 0
0.895 0.035 0
0.905 0.035 0
0.915 0.035 0
0.925 0.035 0
0.935 0.035 0
0.945 0.035 0
0.955 0.035 0
0.965 0.035 0
0.975 0.035 0
0.985 0.035 0
0.995 0.035 0
1.005 0.035 0
1.015 0.035 0
1.025 0.035 0
1.035 0.035 0
1.045 0.035 0
[...]
POINT_DATA 20000
VECTORS velocity float
0.989565 -2.93609e-05 0
0.979991 -6.80766e-05 0
0.971063 -0.000115126 0
0.962607 -0.000169352 0
0.954485 -0.000230044 0
0.946593 -0.000296078 0
0.938853 -0.000366967 0
0.931213 -0.000441685 0
0.923643 -0.000519761 0
0.916129 -0.000600466 0
0.908673 -0.000683028 0
0.901291 -0.00076735 0
0.894007 -0.00085196 0
0.886853 -0.000937823 0
0.879871 -0.00102232 0
0.873101 -0.00110795 0
0.866589 -0.00119049 0
0.86038 -0.00127444 0
0.854519 -0.00135358 0
0.849048 -0.00143476 0
0.844007 -0.00150943 0
0.839431 -0.00158709 0
0.835353 -0.00165659 0
0.8318 -0.00173024 0
0.828794 -0.00179417 0
0.826354 -0.00186348 0
0.824493 -0.00192161 0
0.823221 -0.00198633 0
0.822543 -0.00203845 0
0.82246 -0.00209822 0
0.822972 -0.00214403 0
0.824074 -0.00219832 0
0.825759 -0.00223732 0
0.828018 -0.0022853 0
0.830839 -0.0023167 0
0.83421 -0.00235724 0
0.838117 -0.00237994 0
0.842543 -0.00241161 0
0.847471 -0.0024242 0
0.852884 -0.00244531 0
0.858763 -0.00244621 0
0.865088 -0.00245491 0
0.871838 -0.0024424 0
0.878992 -0.00243686 0
0.886527 -0.00240929 0
0.894421 -0.00238778 0
0.902649 -0.00234373 0
0.911188 -0.00230487 0
0.920012 -0.00224328 0
0.929095 -0.00218614 0
0.938412 -0.00210649 0
0.947936 -0.00203077 0
0.957639 -0.00193317 0
0.967493 -0.00183923 0
0.977472 -0.00172451 0
0.987547 -0.00161346 0
0.99769 -0.00148315 0
1.00787 -0.00135679 0
1.01807 -0.00121309 0
1.02824 -0.00107387 0
1.03837 -0.000919554 0
1.04843 -0.000770447 0
1.05839 -0.000608754 0
1.06823 -0.0004531 0
1.07791 -0.000287562 0
1.08742 -0.00012893 0
1.09672 3.67921e-05 0
1.10579 0.000194784 0
1.11462 0.00035706 0
1.12318 0.000510902 0
1.13144 0.000666291 0
1.13939 0.000812726 0
1.147 0.00095811 0
1.15427 0.00109426 0
1.16117 0.00122696 0
1.16769 0.00135042 0
1.17381 0.00146829 0
1.17952 0.00157721 0
1.18481 0.00167869 0
1.18967 0.00177182 0
1.19409 0.00185596 0
1.19806 0.00193266 0
1.20159 0.00199918 0
1.20466 0.00205939 0
1.20728 0.0021086 0
1.20944 0.00215288 0
1.21116 0.00218565 0
1.21242 0.00221502 0
1.21325 0.00223274 0
1.21364 0.00224867 0
1.21361 0.0022531 0
1.21317 0.00225737 0
1.21233 0.00225058 0
1.2111 0.00224516 0
1.20951 0.00222938 0
1.20756 0.00221631 0
1.20528 0.00219381 0
1.20268 0.0021751 0
1.19979 0.00214806 0
1.19662 0.00212555 0
1.1932 0.00209594 0
1.18953 0.00207123 0
1.18565 0.00204077 0
1.18158 0.00201515 0
1.17733 0.00198522 0
1.17292 0.00195962 0
1.16837 0.00193124 0
1.1637 0.00190626 0
1.15892 0.00188007 0
1.15405 0.001856 0
1.14911 0.00183231 0
1.14411 0.00180911 0
1.13905 0.00178793 0
1.13397 0.00176536 0
1.12886 0.00174644 0
1.12373 0.00172409 0
1.1186 0.00170699 0
1.11348 0.00168434 0
1.10837 0.00166848 0
1.10328 0.00164496 0
1.09821 0.00162971 0
1.09318 0.00160476 0
1.08819 0.00158944 0
1.08324 0.00156257 0
1.07834 0.00154654 0
1.07349 0.00151733 0
1.0687 0.00150001 0
1.06397 0.00146818 0
1.05931 0.00144906 0
1.05472 0.00141444 0
1.05019 0.00139314 0
1.04574 0.0013557 0
1.04137 0.00133197 0
1.03707 0.00129179 0
1.03286 0.00126552 0
1.02873 0.00122281 0
1.02468 0.00119401 0
1.02071 0.00114907 0
1.01684 0.00111789 0
1.01304 0.00107111 0
1.00934 0.00103781 0
1.00573 0.000989631 0
1.0022 0.000954577 0
0.998762 0.000905473 0
0.995412 0.000869117 0
0.992149 0.000819582 0
0.988973 0.000782439 0
0.985883 0.000732962 0
0.982877 0.000695591 0
0.979955 0.00064664 0
0.977115 0.000609623 0
0.974355 0.000561632 0
0.971674 0.000525553 0
0.969069 0.000478913 0
0.966538 0.000444343 0
0.96408 0.000399393 0
0.961693 0.000366871 0
0.959373 0.000323895 0
0.957119 0.00029392 0
0.954928 0.000253147 0
0.9528 0.000226162 0
0.95073 0.000187765 0
0.948719 0.000164155 0
0.946763 0.000128255 0
0.944861 0.000108338 0
0.943011 7.50059e-05 0
0.941212 5.90313e-05 0
0.939464 2.82921e-05 0
0.937764 1.64377e-05 0
0.936113 -1.17244e-05 0
0.934511 -1.93536e-05 0
0.932956 -4.49913e-05 0
0.931451 -4.83636e-05 0
0.929994 -7.15629e-05 0
0.928587 -7.07206e-05 0
0.927231 -9.15962e-05 0
0.925929 -8.66558e-05 0
0.92468 -0.000105348 0
0.923489 -9.64999e-05 0
0.922357 -0.00011317 0
0.921287 -0.000100679 0
0.920281 -0.000115508 0
0.919344 -9.9709e-05 0
0.918479 -0.00011289 0
0.917689 -9.41881e-05 0
0.916977 -0.000105925 0
0.916348 -8.47869e-05 0
0.915805 -9.52877e-05 0
0.915351 -7.22357e-05 0
0.914991 -8.16994e-05 0
0.914728 -5.73169e-05 0
0.914563 -6.59131e-05 0
0.9145 -4.08884e-05 0
0.91454 -4.87075e-05 0
0.914684 -2.40195e-05 0
0.914929 -3.09623e-05 0
0.915268 -8.44575e-06 0
0.915684 -1.39803e-05 0
0.91613 2.19309e-06 0
0.916492 -4.32157e-07 0
0.989544 -8.79859e-05 0
0.979951 -0.000204111 0
0.971007 -0.000344987 0
0.962537 -0.000507732 0
0.954402 -0.000689357 0
0.946499 -0.000887579 0
0.938749 -0.00109973 0
0.931102 -0.0013239 0
0.923525 -0.0015578 0
0.916005 -0.00179954 0
0.908545 -0.00204744 0
0.901159 -0.00229928 0
0.893872 -0.00255432 0
0.886719 -0.00280957 0
0.879735 -0.00306576 0
0.872966 -0.00331867 0
0.866454 -0.00357095 0
0.860247 -0.00381679 0
0.854387 -0.0040612 0
0.848919 -0.00429638 0
0.843879 -0.00453002 0
0.839307 -0.00475205 0
0.835232 -0.00497302 0
0.831682 -0.00518034 0
0.828679 -0.00538747 0
0.826243 -0.00557915 0
0.824385 -0.00577164 0
0.823117 -0.00594702 0
0.822442 -0.00612407 0
0.822363 -0.00628231 0
0.822879 -0.00644275 0
0.823986 -0.00658252 0
0.825675 -0.00672448 0
0.827939 -0.00684364 0
0.830765 -0.00696437 0
0.834143 -0.00705988 0
0.838055 -0.00715566 0
0.842489 -0.00722354 0
0.847425 -0.00728981 0
0.852847 -0.00732531 0
0.858735 -0.00735687 0
0.86507 -0.00735479 0
0.871831 -0.00734617 0
0.878996 -0.00730122 0
0.886543 -0.00724714 0
0.894449 -0.00715447 0
0.90269 -0.00705034 0
0.911242 -0.00690601 0
0.920079 -0.00674841 0
0.929176 -0.0065499 0
0.938506 -0.00633706 0
0.948042 -0.00608362 0
0.957757 -0.00581572 0
0.967623 -0.00550868 0
0.977612 -0.00518802 0
0.987696 -0.00483086 0
0.997848 -0.00446194 0
1.00804 -0.00406027 0
1.01824 -0.0036496 0
1.02842 -0.00321092 0
1.03855 -0.00276678 0
1.04861 -0.00230016 0
1.05857 -0.00183218 0
1.0684 -0.00134781 0
1.07808 -0.000866526 0
1.08758 -0.000375241 0
1.09687 0.000108434 0
1.10594 0.000595653 0
1.11475 0.0010709 0
1.1233 0.00154342 0
1.13154 0.00199999 0
1.13948 0.00244795 0
1.14708 0.00287656 0
1.15432 0.00329128 0
1.1612 0.00368396 0
1.1677 0.0040582 0
1.1738 0.00440856 0
1.17948 0.00473677 0
1.18475 0.00504016 0
1.18959 0.00531861 0
1.19399 0.00557223 0
1.19794 0.00579909 0
1.20144 0.006002 0
1.20449 0.00617728 0
1.20709 0.00633034 0
1.20923 0.00645581 0
1.21092 0.00656151 0
1.21217 0.00664052 0
1.21297 0.00670279 0
1.21335 0.00674 0
1.2133 0.0067639 0
1.21284 0.00676497 0
1.21199 0.00675634 0
1.21075 0.00672758 0
1.20914 0.00669272 0
1.20718 0.0066407 0
1.20489 0.00658594 0
1.20228 0.00651711 0
1.19938 0.00644848 0
1.19621 0.00636888 0
1.19278 0.00629181 0
1.18911 0.00620672 0
1.18523 0.0061258 0
1.18115 0.00603959 0
1.1769 0.00595842 0
1.17249 0.00587442 0
1.16794 0.00579554 0
1.16327 0.00571599 0
1.15849 0.00564088 0
1.15363 0.00556699 0
1.14869 0.0054962 0
1.14369 0.00542825 0
1.13864 0.0053615 0
1.13356 0.00529898 0
1.12845 0.00523534 0
1.12333 0.00517713 0
1.11821 0.0051152 0
1.11309 0.00505976 0
1.10799 0.00499787 0
1.1029 0.0049434 0
1.09784 0.00487979 0
1.09282 0.00482442 0
1.08783 0.00475734 0
1.08289 0.00469925 0
1.07799 0.00462717 0
1.07316 0.0045647 0
1.06837 0.00448632 0
1.06365 0.00441811 0
1.059 0.00433249 0
1.05441 0.00425749 0
1.04989 0.00416404 0
1.04545 0.00408159 0
1.04109 0.00398013 0
1.0368 0.00388994 0
1.03259 0.00378064 0
1.02847 0.00368283 0
1.02442 0.00356624 0
1.02047 0.00346127 0
1.0166 0.00333822 0
1.01281 0.00322689 0
1.00912 0.00309848 0
1.00551 0.00298187 0
1.00199 0.00284939 0
0.998563 0.00272879 0
0.995219 0.00259367 0
0.991965 0.00247055 0
0.988795 0.00233428 0
0.985713 0.00221021 0
0.982714 0.00207431 0
0.979799 0.00195089 0
0.976965 0.00181686 0
0.974213 0.0016957 0
0.971537 0.00156493 0
0.96894 0.00144759 0
0.966415 0.00132139 0
0.963964 0.0012093 0
0.961581 0.00108883 0
0.959268 0.000983322 0
0.95702 0.000869591 0
0.954836 0.000771836 0
0.952712 0.00066569 0
0.950649 0.000576688 0
0.948642 0.000478803 0
0.946692 0.000399375 0
0.944794 0.000310259 0
0.94295 0.000241043 0
0.941155 0.000161039 0
0.939412 0.000102486 0
0.937717 3.17795e-05 0
0.936071 -1.58442e-05 0
0.934472 -7.72182e-05 0
0.932923 -0.00011383 0
0.93142 -0.00016598 0
0.929968 -0.000191678 0
0.928564 -0.000234847 0
0.927213 -0.000249904 0
0.925913 -0.000284466 0
0.924669 -0.00028933 0
0.92348 -0.000315776 0
0.922352 -0.000311065 0
0.921284 -0.000330003 0
0.920282 -0.000316495 0
0.919347 -0.000328635 0
0.918484 -0.000307266 0
0.917695 -0.00031341 0
0.916986 -0.000285255 0
0.916358 -0.000286283 0
0.915817 -0.000252538 0
0.915365 -0.000249383 0
0.915006 -0.000211347 0
0.914743 -0.000204968 0
0.914579 -0.000164059 0
0.914517 -0.000155422 0
0.914557 -0.000113316 0
0.914701 -0.000103431 0
0.914946 -6.26149e-05 0
0.915285 -5.27743e-05 0
0.9157 -1.81631e-05 0
0.916146 -1.07019e-05 0
0.916508 6.37634e-06 0
0.989502 -0.000146415 0
0.979873 -0.00033957 0
0.970896 -0.000574039 0
0.962397 -0.000844635 0
0.954237 -0.00114695 0
0.946312 -0.00147647 0
0.938543 -0.00182957 0
0.930879 -0.00220228 0
0.923289 -0.00259139 0
0.915758 -0.00299358 0
0.908289 -0.00340564 0
0.900896 -0.00382515 0
0.893606 -0.0042485 0
0.886448 -0.00467459 0
0.879464 -0.00509898 0
0.872694 -0.0055224 0
0.866185 -0.00593921 0
0.859979 -0.00635245 0
0.854124 -0.00675485 0
0.848659 -0.00715218 0
0.843627 -0.00753523 0
0.839058 -0.00791269 0
0.83499 -0.00827312 0
0.831445 -0.00862821 0
0.82845 -0.00896405 0
0.826019 -0.0092952 0
0.824169 -0.00960518 0
0.822906 -0.00991118 0
0.822239 -0.0101941 0
0.822167 -0.0104733 0
0.822692 -0.0107273 0
0.823806 -0.0109774 0
0.825505 -0.0111994 0
0.827778 -0.0114164 0
0.830617 -0.0116022 0
0.834005 -0.0117807 0
0.837932 -0.0119241 0
0.842379 -0.0120572 0
0.847332 -0.0121507 0
0.852771 -0.0122301 0
0.858678 -0.0122652 0
0.865033 -0.0122819 0
0.871816 -0.0122496 0
0.879003 -0.0121945 0
0.886574 -0.0120861 0
0.894505 -0.0119507 0
0.902772 -0.0117587 0
0.91135 -0.0115363 0
0.920213 -0.0112551 0
0.929336 -0.0109413 0
0.938692 -0.0105681 0
0.948253 -0.0101616 0
0.957992 -0.00969677 0
0.967881 -0.00919972 0
0.977891 -0.00864741 0
0.987994 -0.00806562 0
0.998161 -0.0074335 0
1.00836 -0.00677635 0
1.01857 -0.00607554 0
1.02876 -0.00535559 0
1.0389 -0.00460012 0
1.04896 -0.00383257 0
1.05892 -0.00303872 0
1.06875 -0.00224062 0
1.07841 -0.00142614 0
1.0879 -0.000615612 0
1.09718 0.000201134 0
1.10622 0.00100577 0
1.11501 0.00180661 0
1.12353 0.00258764 0
1.13175 0.0033554 0
1.13965 0.00409643 0
1.14721 0.0048156 0
1.15442 0.00550223 0
1.16126 0.00615953 0
1.16772 0.00677978 0
1.17377 0.00736459 0
1.17942 0.00790932 0
1.18464 0.00841399 0
1.18943 0.00887707 0
1.19378 0.00929706 0
1.19768 0.0096755 0
1.20114 0.0100094 0
1.20414 0.0103033 0
1.20669 0.0105527 0
1.20879 0.0107651 0
1.21044 0.0109344 0
1.21165 0.0110707 0
1.21242 0.0111667 0
1.21275 0.0112346 0
1.21267 0.011266 0
1.21218 0.0112747 0
1.21129 0.0112515 0
1.21003 0.0112114 0
1.20839 0.0111443 0
1.20641 0.011066 0
1.2041 0.0109659 0
1.20148 0.0108598 0
1.19856 0.0107371 0
1.19538 0.0106128 0
1.19193 0.0104767 0
1.18826 0.0103428 0
1.18437 0.0102013 0
1.18029 0.0100645 0
1.17603 0.00992395 0
1.17162 0.00978946 0
1.16708 0.00965427 0
1.16241 0.00952546 0
1.15764 0.00939841 0
1.15278 0.00927698 0
1.14784 0.00915918 0
1.14285 0.00904533 0
1.13781 0.0089365 0
1.13274 0.00882921 0
1.12764 0.00872791 0
1.12253 0.00862522 0
1.11742 0.00852918 0
1.11231 0.00842852 0
1.10722 0.00833493 0
1.10215 0.00823338 0
1.0971 0.00813919 0
1.09209 0.00803378 0
1.08712 0.00793595 0
1.08219 0.00782389 0
1.07731 0.00771959 0
1.07248 0.00759845 0
1.06772 0.00748523 0
1.06301 0.00735306 0
1.05837 0.00722902 0
1.0538 0.00708447 0
1.0493 0.00694828 0
1.04487 0.00679063 0
1.04052 0.0066416 0
1.03624 0.00647076 0
1.03205 0.00630885 0
1.02794 0.00612537 0
1.02392 0.00595115 0
1.01998 0.0057561 0
1.01612 0.00557072 0
1.01235 0.00536567 0
1.00868 0.00517074 0
1.00508 0.00495767 0
1.00158 0.00475521 0
0.998163 0.00453636 0
0.994836 0.00432871 0
0.991594 0.00410652 0
0.988441 0.00389619 0
0.985371 0.00367321 0
0.982388 0.00346284 0
0.979486 0.00324161 0
0.976668 0.00303384 0
0.973927 0.00281682 0
0.971267 0.00261421 0
0.96868 0.00240373 0
0.96617 0.00220872 0
0.963729 0.00200689 0
0.961361 0.00182172 0
0.959058 0.00163044 0
0.956823 0.00145709 0
0.954649 0.00127797 0
0.952538 0.00111817 0
0.950484 0.00095256 0
0.94849 0.00080775 0
0.946548 0.000656705 0
0.944663 0.000528019 0
0.942826 0.000392315 0
0.941044 0.000280587 0
0.939308 0.000160724 0
0.937624 6.64893e-05 0
0.935985 -3.73016e-05 0
0.934397 -0.000113804 0
0.932854 -0.000201547 0
0.931361 -0.000260366 0
0.929915 -0.00033233 0
0.928521 -0.000373797 0
0.927175 -0.000430486 0
0.925884 -0.000455208 0
0.924644 -0.000497349 0
0.923464 -0.000506201 0
0.922339 -0.000534732 0
0.921279 -0.000528846 0
0.920281 -0.000544907 0
0.919352 -0.000525663 0
0.918493 -0.000530572 0
0.91771 -0.000499577 0
0.917003 -0.000494816 0
0.91638 -0.000453875 0
0.915841 -0.000441052 0
0.915392 -0.000392138 0
0.915035 -0.000372949 0
0.914774 -0.000318177 0
0.914612 -0.000294377 0
0.91455 -0.000236079 0
0.914591 -0.000209526 0
0.914735 -0.000150654 0
0.91498 -0.000123639 0
0.915318 -6.91233e-05 0
0.915733 -4.55089e-05 0
0.916178 -5.9587e-06 0
0.916539 5.90441e-06 0
0.98944 -0.000204453 0
0.979755 -0.000474213 0
0.97073 -0.000801499 0
0.962187 -0.00117941 0
0.95399 -0.00160128 0
0.946032 -0.00206145 0
0.938235 -0.00255413 0
0.930547 -0.0030745 0
0.922936 -0.00361756 0
0.915389 -0.00417887 0
0.907906 -0.00475432 0
0.900504 -0.00533944 0
0.893205 -0.00593135 0
0.886044 -0.00652511 0
0.879056 -0.00711954 0
0.872289 -0.00770888 0
0.86578 -0.00829416 0
0.85958 -0.00886842 0
0.853728 -0.00943535 0
0.848272 -0.00998645 0
0.843244 -0.0105284 0
0.838687 -0.0110507 0
0.834624 -0.0115632 0
0.831091 -0.0120532 0
0.828103 -0.0125336 0
0.825683 -0.0129892 0
0.823841 -0.0134356 0
0.82259 -0.0138551 0
0.821932 -0.0142656 0
0.821873 -0.0146468 0
0.822407 -0.0150186 0
0.823535 -0.0153582 0
0.825246 -0.0156868 0
0.827536 -0.0159793 0
0.830389 -0.0162583 0
0.833797 -0.0164962 0
0.837742 -0.0167165 0
0.842212 -0.0168901 0
0.847188 -0.0170409 0
0.852654 -0.0171386 0
0.858589 -0.0172074 0
0.864974 -0.0172165 0
0.871789 -0.0171903 0
0.879011 -0.017098 0
0.886618 -0.0169643 0
0.894587 -0.0167588 0
0.902892 -0.0165067 0
0.911509 -0.0161786 0
0.920412 -0.0158 0
0.929574 -0.0153433 0
0.938968 -0.0148342 0
0.948567 -0.0142472 0
0.958342 -0.0136083 0
0.968264 -0.0128941 0
0.978306 -0.0121311 0
0.988437 -0.0112984 0
0.998629 -0.0104223 0
1.00885 -0.00948447 0
1.01908 -0.00851103 0
1.02928 -0.00748614 0
1.03942 -0.00643525 0
1.04949 -0.00534495 0
1.05944 -0.00423965 0
1.06926 -0.0031082 0
1.07891 -0.00197356 0
1.08837 -0.00082663 0
1.09763 0.000311464 0
1.10664 0.00144798 0
1.1154 0.00256401 0
1.12387 0.00366514 0
1.13204 0.00473506 0
1.13989 0.00577778 0
1.14741 0.00677994 0
1.15456 0.00774407 0
1.16134 0.00865999 0
1.16773 0.00952888 0
1.17372 0.0103439 0
1.1793 0.0111049 0
1.18445 0.0118084 0
1.18917 0.0124532 0
1.19345 0.0130392 0
1.19729 0.0135637 0
1.20068 0.0140304 0
1.20361 0.0144352 0
1.2061 0.0147849 0
1.20813 0.0150745 0
1.20972 0.0153135 0
1.21086 0.0154959 0
1.21157 0.0156337 0
1.21185 0.0157198 0
1.21172 0.0157686 0
1.21118 0.0157718 0
1.21025 0.0157454 0
1.20894 0.0156803 0
1.20727 0.0155935 0
1.20525 0.0154753 0
1.20291 0.015343 0
1.20026 0.0151864 0
1.19732 0.0150227 0
1.19412 0.0148415 0
1.19066 0.0146589 0
1.18697 0.0144652 0
1.18308 0.0142745 0
1.17899 0.0140779 0
1.17473 0.0138875 0
1.17032 0.0136955 0
1.16577 0.0135112 0
1.16111 0.0133287 0
1.15634 0.013154 0
1.15149 0.0129836 0
1.14657 0.0128198 0
1.14159 0.0126618 0
1.13656 0.0125083 0
1.1315 0.0123615 0
1.12642 0.012216 0
1.12133 0.0120778 0
1.11623 0.0119372 0
1.11114 0.0118038 0
1.10606 0.0116643 0
1.10101 0.0115317 0
1.09598 0.011389 0
1.09099 0.0112529 0
1.08604 0.011103 0
1.08113 0.0109594 0
1.07627 0.0107986 0
1.07147 0.0106438 0
1.06672 0.010469 0
1.06204 0.0103001 0
1.05742 0.0101089 0
1.05287 0.00992364 0
1.04839 0.00971468 0
1.04399 0.00951174 0
1.03966 0.00928439 0
1.03541 0.00906335 0
1.03124 0.0088179 0
1.02716 0.00857921 0
1.02316 0.00831675 0
1.01924 0.00806168 0
1.01541 0.00778408 0
1.01166 0.0075146 0
1.00801 0.00722431 0
1.00444 0.00694303 0
1.00096 0.006643 0
0.997565 0.00635298 0
0.994258 0.00604652 0
0.991041 0.00575117 0
0.987907 0.00544177 0
0.984862 0.0051447 0
0.981897 0.00483595 0
0.979019 0.00454082 0
0.976218 0.00423624 0
0.973501 0.00394668 0
0.970857 0.00364966 0
0.968293 0.00336913 0
0.965799 0.0030828 0
0.963381 0.00281451 0
0.961028 0.00254174 0
0.958746 0.0022886 0
0.956526 0.00203186 0
0.954372 0.00179641 0
0.952275 0.00155783 0
0.95024 0.00134223 0
0.948259 0.00112352 0
0.946336 0.000929503 0
0.944463 0.000731983 0
0.942645 0.000560886 0
0.940873 0.000385479 0
0.939155 0.000238208 0
0.937481 8.54509e-05 0
0.935859 -3.74911e-05 0
0.93428 -0.000167432 0
0.932753 -0.000265944 0
0.931269 -0.00037326 0
0.929838 -0.00044763 0
0.928452 -0.000532854 0
0.92712 -0.00058375 0
0.925837 -0.000647743 0
0.92461 -0.0006762 0
0.923436 -0.000720138 0
0.922324 -0.000727549 0
0.921269 -0.000752902 0
0.920281 -0.000741001 0
0.919358 -0.00074952 0
0.918508 -0.00072036 0
0.917729 -0.000714045 0
0.91703 -0.000669965 0
0.916411 -0.00065103 0
0.915878 -0.000594615 0
0.915432 -0.000565437 0
0.915079 -0.000499467 0
0.91482 -0.000462534 0
0.91466 -0.000389991 0
0.9146 -0.000347912 0
0.914642 -0.000272213 0
0.914786 -0.000227973 0
0.91503 -0.000153956 0
0.915369 -0.000111955 0
0.915782 -4.88343e-05 0
0.916226 -1.78799e-05 0
0.916585 1.3373e-05 0
0.989357 -0.000261999 0
0.979599 -0.000607581 0
0.970508 -0.00102694 0
0.961909 -0.0015109 0
0.953661 -0.00205138 0
0.945659 -0.00264054 0
0.937825 -0.00327165 0
0.930104 -0.00393788 0
0.922467 -0.00463335 0
0.914897 -0.00535222 0
0.907398 -0.00608894 0
0.899981 -0.00683885 0
0.892674 -0.00759631 0
0.885505 -0.00835824 0
0.878517 -0.00911853 0
0.871746 -0.00987617 0
0.865243 -0.0106243 0
0.859046 -0.0113644 0
0.853204 -0.0120885 0
0.847752 -0.012801 0
0.842737 -0.0134925 0
0.838186 -0.0141706 0
0.834139 -0.0148239 0
0.830613 -0.0154631 0
0.82764 -0.0160747 0
0.82523 -0.0166723 0
0.823403 -0.0172398 0
0.822162 -0.0177934 0
0.82152 -0.0183145 0
0.821472 -0.0188212 0
0.822025 -0.0192922 0
0.823166 -0.0197472 0
0.824898 -0.0201622 0
0.827205 -0.0205582 0
0.830081 -0.0209088 0
0.833511 -0.0212356 0
0.837484 -0.0215101 0
0.841982 -0.0217546 0
0.846991 -0.0219388 0
0.85249 -0.0220854 0
0.858464 -0.0221631 0
0.864889 -0.0221949 0
0.871748 -0.0221492 0
0.879016 -0.0220492 0
0.886671 -0.0218637 0
0.894689 -0.0216164 0
0.903046 -0.021277 0
0.911715 -0.0208698 0
0.920671 -0.0203662 0
0.929886 -0.0197911 0
0.939331 -0.0191182 0
0.948981 -0.0183732 0
0.958803 -0.0175321 0
0.968771 -0.0166215 0
0.978853 -0.0156201 0
0.989021 -0.014555 0
0.999244 -0.013408 0
1.00949 -0.0122062 0
1.01974 -0.0109344 0
1.02996 -0.00961973 0
1.04011 -0.0082494 0
1.05017 -0.00685004 0
1.06012 -0.00541142 0
1.06992 -0.00395905 0
1.07955 -0.00248492 0
1.08899 -0.00101293 0
1.09821 0.000462995 0
1.10718 0.00192107 0
1.11589 0.00336567 0
1.12431 0.00477761 0
1.13242 0.00615979 0
1.1402 0.00749602 0
1.14764 0.00878791 0
1.15472 0.0100226 0
1.16141 0.0112006 0
1.16772 0.0123126 0
1.17362 0.0133581 0
1.17911 0.0143314 0
1.18417 0.0152311 0
1.1888 0.0160555 0
1.19299 0.016802 0
1.19674 0.0174727 0
1.20003 0.0180642 0
1.20287 0.0185822 0
1.20527 0.0190221 0
1.20722 0.0193934 0
1.20872 0.0196904 0
1.20978 0.0199255 0
1.21041 0.0200922 0
1.21062 0.0202054 0
1.21042 0.0202577 0
1.20982 0.020266 0
1.20882 0.020222 0
1.20746 0.0201441 0
1.20574 0.0200232 0
1.20368 0.0198783 0
1.2013 0.0196997 0
1.19862 0.0195063 0
1.19565 0.0192883 0
1.19242 0.0190638 0
1.18894 0.0188227 0
1.18524 0.0185818 0
1.18133 0.0183316 0
1.17724 0.0180865 0
1.17298 0.0178379 0
1.16857 0.0175975 0
1.16402 0.0173582 0
1.15937 0.0171285 0
1.15461 0.0169031 0
1.14977 0.0166869 0
1.14486 0.0164771 0
1.13989 0.0162747 0
1.13488 0.0160799 0