# vtk DataFile Version 3.0
Flow field at step 1650
ASCII
DATASET STRUCTURED_GRID
DIMENSIONS 200 100 1
POINTS 20000 float
0.005 0.005 0
0.015 0.005 0
0.025 0.005 0
0.035 0.005 0
0.045 0.005 0
0.055 0.005 0
0.065 0.005 0
0.075 0.005 0
0.085 0.005 0
0.095 0.005 0
0.105 0.005 0
0.115 0.005 0
0.125 0.005 0
0.135 0.005 0
0.145 0.005 0
0.155 0.005 0
0.165 0.005 0
0.175 0.005 0
0.185 0.005 0
0.195 0.005 0
0.205 0.005 0
0.215 0.005 0
0.225 0.005 0
0.235 0.005 0
0.245 0.005 0
0.255 0.005 0
0.265 0.005 0
0.275 0.005 0
0.285 0.005 0
0.295 0.005 0
0.305 0.005 0
0.315 0.005 0
0.325 0.005 0
0.335 0.005 0
0.345 0.005 0
0.355 0.005 0
0.365 0.005 0
0.375 0.005 0
0.385 0.005 0
0.395 0.005 0
0.405 0.005 0
0.415 0.005 0
0.425 0.005 0
0.435 0.005 0
0.445 0.005 0
0.455 0.005 0
0.465 0.005 0
0.475 0.005 0
0.485 0.005 0
0.495 0.005 0
0.505 0.005 0
0.515 0.005 0
0.525 0.005 0
0.535 0.005 0
0.545 0.005 0
0.555 0.005 0
0.565 0.005 0
0.575 0.005 0
0.585 0.005 0
0.595 0.005 0
0.605 0.005 0
0.615 0.005 0
0.625 0.005 0
0.635 0.005 0
0.645 0.005 0
0.655 0.005 0
0.665 0.005 0
0.675 0.005 0
0.685 0.005 0
0.695 0.005 0
0.705 0.005 0
0.715 0.005 0
0.725 0.005 0
0.735 0.005 0
0.745 0.005 0
0.755 0.005 0
0.765 0.005 0
0.775 0.005 0
0.785 0.005 0
0.795 0.005 0
0.805 0.005 0
0.815 0.005 0
0.825 0.005 0
0.835 0.005 0
0.845 0.005 0
0.855 0.005 0
0.865 0.005 0
0.875 0.005 0
0.885 0.005 0
0.895 0.005 0
0.905 0.005 0
0.915 0.005 0
0.925 0.005 0
0.935 0.005 0
0.945 0.005 0
0.955 0.005 0
0.965 0.005 0
0.975 0.005 0
0.985 0.005 0
0.995 0.005 0
1.005 0.005 0
1.015 0.005 0
1.025 0.005 0
1.035 0.005 0
1.045 0.005 0
1.055 0.005 0
1.065 0.005 0
1.075 0.005 0
1.085 0.005 0
1.095 0.005 0
1.105 0.005 0
1.115 0.005 0
1.125 0.005 0
1.135 0.005 0
1.145 0.005 0
1.155 0.005 0
1.165 0.005 0
1.175 0.005 0
1.185 0.005 0
1.195 0.005 0
1.205 0.005 0
1.215 0.005 0
1.225 0.005 0
1.235 0.005 0
1.245 0.005 0
1.255 0.005 0
1.265 0.005 0
1.275 0.005 0
1.285 0.005 0
1.295 0.005 0
1.305 0.005 0
1.315 0.005 0
1.325 0.005 0
1.335 0.005 0
1.345 0.005 0
1.355 0.005 0
1.365 0.005 0
1.375 0.005 0
1.385 0.005 0
1.395 0.005 0
1.405 0.005 0
1.415 0.005 0
1.425 0.005 0
1.435 0.005 0
1.445 0.005 0
1.455 0.005 0
1.465 0.005 0
1.475 0.005 0
1.485 0.005 0
1.495 0.005 0
1.505 0.005 0
1.515 0.005 0
1.525 0.005 0
1.535 0.005 0
1.545 0.005 0
1.555 0.005 0
1.565 0.005 0
1.575 0.005 0
1.585 0.005 0
1.595 0.005 0
1.605 0.005 0
1.615 0.005 0
1.625 0.005 0
1.635 0.005 0
1.645 0.005 0
1.655 0.005 0
1.665 0.005 0
1.675 0.005 0
1.685 0.005 0
1.695 0.005 0
1.705 0.005 0
1.715 0.005 0
1.725 0.005 0
1.735 0.005 0
1.745 0.005 0
1.755 0.005 0
1.765 0.005 0
1.775 0.005 0
1.785 0.005 0
1.795 0.005 0
1.805 0.005 0
1.815 0.005 0
1.825 0.005 0
1.835 0.005 0
1.845 0.005 0
1.855 0.005 0
1.865 0.005 0
1.875 0.005 0
1.885 0.005 0
1.895 0.005 0
1.905 0.005 0
1.915 0.005 0
1.925 0.005 0
1.935 0.005 0
1.945 0.005 0
1.955 0.005 0
1.965 0.005 0
1.975 0.005 0
1.985 0.005 0
1.995 0.005 0
0.005 0.015 0
0.015 0.015 0
0.025 0.015 0
0.035 0.015 0
0.045 0.015 0
0.055 0.015 0
0.065 0.015 0
0.075 0.015 0
0.085 0.015 0
0.095 0.015 0
0.105 0.015 0
0.115 0.015 0
0.125 0.015 0
0.135 0.015 0
0.145 0.015 0
0.155 0.015 0
0.165 0.015 0
0.175 0.015 0
0.185 0.015 0
0.195 0.015 0
0.205 0.015 0
0.215 0.015 0
0.225 0.015 0
0.235 0.015 0
0.245 0.015 0
0.255 0.015 0
0.265 0.015 0
0.275 0.015 0
0.285 0.015 0
0.295 0.015 0
0.305 0.015 0
0.315 0.015 0
0.325 0.015 0
0.335 0.015 0
0.345 0.015 0
0.355 0.015 0
0.365 0.015 0
0.375 0.015 0
0.385 0.015 0
0.395 0.015 0
0.405 0.015 0
0.415 0.015 0
0.425 0.015 0
0.435 0.015 0
0.445 0.015 0
0.455 0.015 0
0.465 0.015 0
0.475 0.015 0
0.485 0.015 0
0.495 0.015 0
0.505 0.015 0
0.515 0.015 0
0.525 0.015 0
0.535 0.015 0
0.545 0.015 0
0.555 0.015 0
0.565 0.015 0
0.575 0.015 0
0.585 0.015 0
0.595 0.015 0
0.605 0.015 0
0.615 0.015 0
0.625 0.015 0
0.635 0.015 0
0.645 0.015 0
0.655 0.015 0
0.665 0.015 0
0.675 0.015 0
0.685 0.015 0
0.695 0.015 0
0.705 0.015 0
0.715 0.015 0
0.725 0.015 0
0.735 0.015 0
0.745 0.015 0
0.755 0.015 0
0.765 0.015 0
0.775 0.015 0
0.785 0.015 0
0.795 0.015 0
0.805 0.015 0
0.815 0.015 0
0.825 0.015 0
0.835 0.015 0
0.845 0.015 0
0.855 0.015 0
0.865 0.015 0
0.875 0.015 0
0.885 0.015 0
0.895 0.015 0
0.905 0.015 0
0.915 0.015 0
0.925 0.015 0
0.935 0.015 0
0.945 0.015 0
0.955 0.015 0
0.965 0.015 0
0.975 0.015 0
0.985 0.015 0
0.995 0.015 0
1.005 0.015 0
1.015 0.015 0
1.025 0.015 0
1.035 0.015 0
1.045 0.015 0
1.055 0.015 0
1.065 0.015 0
1.075 0.015 0
1.085 0.015 0
1.095 0.015 0
1.105 0.015 0
1.115 0.015 0
1.125 0.015 0
1.135 0.015 0
1.145 0.015 0
1.155 0.015 0
1.165 0.015 0
1.175 0.015 0
1.185 0.015 0
1.195 0.015 0
1.205 0.015 0
1.215 0.015 0
1.225 0.015 0
1.235 0.015 0
1.245 0.015 0
1.255 0.015 0
1.265 0.015 0
1.275 0.015 0
1.285 0.015 0
1.295 0.015 0
1.305 0.015 0
1.315 0.015 0
1.325 0.015 0
1.335 0.015 0
1.345 0.015 0
1.355 0.015 0
1.365 0.015 0
1.375 0.015 0
1.385 0.015 0
1.395 0.015 0
1.405 0.015 0
1.415 0.015 0
1.425 0.015 0
1.435 0.015 0
1.445 0.015 0
1.455 0.015 0
1.465 0.015 0
1.475 0.015 0
1.485 0.015 0
1.495 0.015 0
1.505 0.015 0
1.515 0.015 0
1.525 0.015 0
1.535 0.015 0
1.545 0.015 0
1.555 0.015 0
1.565 0.015 0
1.575 0.015 0
1.585 0.015 0
1.595 0.015 0
1.605 0.015 0
1.615 0.015 0
1.625 0.015 0
1.635 0.015 0
1.645 0.015 0
1.655 0.015 0
1.665 0.015 0
1.675 0.015 0
1.685 0.015 0
1.695 0.015 0
1.705 0.015 0
1.715 0.015 0
1.725 0.015 0
1.735 0.015 0
1.745 0.015 0
1.755 0.015 0
1.765 0.015 0
1.775 0.015 0
1.785 0.015 0
1.795 0.015 0
1.805 0.015 0
1.815 0.015 0
1.825 0.015 0
1.835 0.015 0
1.845 0.015 0
1.855 0.015 0
1.865 0.015 0
1.875 0.015 0
1.885 0.015 0
1.895 0.015 0
1.905 0.015 0
1.915 0.015 0
1.925 0.015 0
1.935 0.015 0
1.945 0.015 0
1.955 0.015 0
1.965 0.015 0
1.975 0.015 0
1.985 0.015 0
1.995 0.015 0
0.005 0.025 0
0.015 0.025 0
0.025 0.025 0
0.035 0.025 0
0.045 0.025 0
0.055 0.025 0
0.065 0.025 0
0.075 0.025 0
0.085 0.025 0
0.095 0.025 0
0.105 0.025 0
0.115 0.025 0
0.125 0.025 0
0.135 0.025 0
0.145 0.025 0
0.155 0.025 0
0.165 0.025 0
0.175 0.025 0
0.185 0.025 0
0.195 0.025 0
0.205 0.025 0
0.215 0.025 0
0.225 0.025 0
0.235 0.025 0
0.245 0.025 0
0.255 0.025 0
0.265 0.025 0
0.275 0.025 0
0.285 0.025 0
0.295 0.025 0
0.305 0.025 0
0.315 0.025 0
0.325 0.025 0
0.335 0.025 0
0.345 0.025 0
0.355 0.025 0
0.365 0.025 0
0.375 0.025 0
0.385 0.025 0
0.395 0.025 0
0.405 0.025 0
0.415 0.025 0
0.425 0.025 0
0.435 0.025 0
0.445 0.025 0
0.455 0.025 0
0.465 0.025 0
0.475 0.025 0
0.485 0.025 0
0.495 0.025 0
0.505 0.025 0
0.515 0.025 0
0.525 0.025 0
0.535 0.025 0
0.545 0.025 0
0.555 0.025 0
0.565 0.025 0
0.575 0.025 0
0.585 0.025 0
0.595 0.025 0
0.605 0.025 0
0.615 0.025 0
0.625 0.025 0
0.635 0.025 0
0.645 0.025 0
0.655 0.025 0
0.665 0.025 0
0.675 0.025 0
0.685 0.025 0
0.695 0.025 0
0.705 0.025 0
0.715 0.025 0
0.725 0.025 0
0.735 0.025 0
0.745 0.025 0
0.755 0.025 0
0.765 0.025 0
0.775 0.025 0
0.785 0.025 0
0.795 0.025 0
0.805 0.025 0
0.815 0.025 0
0.825 0.025 0
0.835 0.025 0
0.845 0.025 0
0.855 0.025 0
0.865 0.025 0
0.875 0.025 0
0.885 0.025 0
0.895 0.025 0
0.905 0.025 0
0.915 0.025 0
0.925 0.025 0
0.935 0.025 0
0.945 0.025 0
0.955 0.025 0
0.965 0.025 0
0.975 0.025 0
0.985 0.025 0
0.995 0.025 0
1.005 0.025 0
1.015 0.025 0
1.025 0.025 0
1.035 0.025 0
1.045 0.025 0
1.055 0.025 0
1.065 0.025 0
1.075 0.025 0
1.085 0.025 0
1.095 0.025 0
1.105 0.025 0
1.115 0.025 0
1.125 0.025 0
1.135 0.025 0
1.145 0.025 0
1.155 0.025 0
1.165 0.025 0
1.175 0.025 0
1.185 0.025 0
1.195 0.025 0
1.205 0.025 0
1.215 0.025 0
1.225 0.025 0
1.235 0.025 0
1.245 0.025 0
1.255 0.025 0
1.265 0.025 0
1.275 0.025 0
1.285 0.025 0
1.295 0.025 0
1.305 0.025 0
1.315 0.025 0
1.325 0.025 0
1.335 0.025 0
1.345 0.025 0
1.355 0.025 0
1.365 0.025 0
1.375 0.025 0
1.385 0.025 0
1.395 0.025 0
1.405 0.025 0
1.415 0.025 0
1.425 0.025 0
1.435 0.025 0
1.445 0.025 0
1.455 0.025 0
1.465 0.025 0
1.475 0.025 0
1.485 0.025 0
1.495 0.025 0
1.505 0.025 0
1.515 0.025 0
1.525 0.025 0
1.535 0.025 0
1.545 0.025 0
1.555 0.025 0
1.565 0.025 0
1.575 0.025 0
1.585 0.025 0
1.595 0.025 0
1.605 0.025 0
1.615 0.025 0
1.625 0.025 0
1.635 0.025 0
1.645 0.025 0
1.655 0.025 0
1.665 0.025 0
1.675 0.025 0
1.685 0.025 0
1.695 0.025 0
1.705 0.025 0
1.715 0.025 0
1.725 0.025 0
1.735 0.025 0
1.745 0.025 0
1.755 0.025 0
1.765 0.025 0
1.775 0.025 0
1.785 0.025 0
1.795 0.025 0
1.805 0.025 0
1.815 0.025 0
1.825 0.025 0
1.835 0.025 0
1.845 0.025 0
1.855 0.025 0
1.865 0.025 0
1.875 0.025 0
1.885 0.025 0
1.895 0.025 0
1.905 0.025 0
1.915 0.025 0
1.925 0.025 0
1.935 0.025 0
1.945 0.025 0
1.955 0.025 0
1.965 0.025 0
1.975 0.025 0
1.985 0.025 0
1.995 0.025 0
0.005 0.035 0
0.015 0.035 0
0.025 0.035 0
0.035 0.035 0
0.045 0.035 0
0.055 0.035 0
0.065 0.035 0
0.075 0.035 0
0.085 0.035 0
0.095 0.035 0
0.105 0.035 0
0.115 0.035 0
0.125 0.035 0
0.135 0.035 0
0.145 0.035 0
0.155 0.035 0
0.165 0.035 0
0.175 0.035 0
0.185 0.035 0
0.195 0.035 0
0.205 0.035 0
0.215 0.035 0
0.225 0.035 0
0.235 0.035 0
0.245 0.035 0
0.255 0.035 0
0.265 0.035 0
0.275 0.035 0
0.285 0.035 0
0.295 0.035 0
0.305 0.035 0
0.315 0.035 0
0.325 0.035 0
0.335 0.035 0
0.345 0.035 0
0.355 0.035 0
0.365 0.035 0
0.375 0.035 0
0.385 0.035 0
0.395 0.035 0
0.405 0.035 0
0.415 0.035 0
0.425 0.035 0
0.435 0.035 0
0.445 0.035 0
0.455 0.035 0
0.465 0.035 0
0.475 0.035 0
0.485 0.035 0
0.495 0.035 0
0.505 0.035 0
0.515 0.035 0
0.525 0.035 0
0.535 0.035 0
0.545 0.035 0
0.555 0.035 0
0.565 0.035 0
0.575 0.035 0
0.585 0.035 0
0.595 0.035 0
0.605 0.035 0
0.615 0.035 0
0.625 0.035 0
0.635 0.035 0
0.645 0.035 0
0.655 0.035 0
0.665 0.035 0
0.675 0.035 0
0.685 0.035 0
0.695 0.035 0
0.705 0.035 0
0.715 0.035 0
0.725 0.035 0
0.735 0.035 0
0.745 0.035 0
0.755 0.035 0
0.765 0.035 0
0.775 0.035 0
0.785 0.035 0
0.795 0.035 0
0.805 0.035 0
0.815 0.035 0
0.825 0.035 0
0.835 0.035 0
0.845 0.035 0
0.855 0.035 0
0.865 0.035 0
0.875 0.035 0
0.885 0.035 0
0.895 0.035 0
0.905 0.035 0
0.915 0.035 0
0.925 0.035 0
0.935 0.035 0
0.945 0.035 0
0.955 0.035 0
0.965 0.035 0
0.975 0.035 0
0.985 0.035 0
0.995 0.035 0
1.005 0.035 0
1.015 0.035 0
1.025 0.035 0
1.035 0.035 0
1.045 0.035 0
[...]
POINT_DATA 20000
VECTORS velocity float
0.951454 -2.44149e-05 0
0.910742 -5.47889e-05 0
0.877027 -8.95601e-05 0
0.849398 -0.000127688 0
0.82696 -0.000168067 0
0.808887 -0.000210324 0
0.794447 -0.000253655 0
0.78301 -0.000298195 0
0.774046 -0.00034328 0
0.767114 -0.000389394 0
0.76185 -0.000435897 0
0.757961 -0.000483517 0
0.755207 -0.000531562 0
0.753397 -0.000580925 0
0.752379 -0.000630831 0
0.752031 -0.000682283 0
0.752257 -0.000734408 0
0.752981 -0.000788276 0
0.754144 -0.000842912 0
0.7557 -0.000899422 0
0.757613 -0.000956729 0
0.759857 -0.00101595 0
0.762412 -0.0010759 0
0.765262 -0.00113769 0
0.768397 -0.00120004 0
0.771811 -0.00126402 0
0.775499 -0.00132825 0
0.779457 -0.00139374 0
0.783686 -0.00145905 0
0.788185 -0.00152509 0
0.792956 -0.00159034 0
0.797999 -0.00165564 0
0.803317 -0.00171938 0
0.80891 -0.00178232 0
0.81478 -0.00184279 0
0.820927 -0.00190146 0
0.827353 -0.00195661 0
0.834056 -0.00200887 0
0.841035 -0.00205645 0
0.848288 -0.00209996 0
0.85581 -0.00213761 0
0.863598 -0.00217 0
0.871645 -0.00219535 0
0.879943 -0.00221432 0
0.888485 -0.00222517 0
0.897261 -0.00222865 0
0.906258 -0.00222308 0
0.915464 -0.00220937 0
0.924866 -0.00218594 0
0.934447 -0.00215389 0
0.944191 -0.00211173 0
0.954081 -0.0020608 0
0.964097 -0.00199974 0
0.974221 -0.00193014 0
0.98443 -0.00185074 0
0.994704 -0.00176342 0
1.00502 -0.00166701 0
1.01536 -0.00156366 0
1.02569 -0.00145225 0
1.036 -0.00133522 0
1.04626 -0.00121147 0
1.05645 -0.00108369 0
1.06653 -0.000950731 0
1.0765 -0.00081553 0
1.08633 -0.000676841 0
1.09599 -0.000537817 0
1.10547 -0.000397056 0
1.11473 -0.000257902 0
1.12376 -0.00011874 0
1.13255 1.69183e-05 0
1.14106 0.000150955 0
1.14928 0.000279709 0
1.15719 0.000405378 0
1.16478 0.000524168 0
1.17203 0.000638631 0
1.17893 0.000744854 0
1.18545 0.000845776 0
1.19159 0.000937369 0
1.19734 0.00102299 0
1.20268 0.00109849 0
1.20762 0.00116767 0
1.21213 0.00122625 0
1.21622 0.00127848 0
1.21989 0.00131997 0
1.22313 0.00135538 0
1.22593 0.0013802 0
1.22831 0.00139952 0
1.23027 0.00140868 0
1.23181 0.00141318 0
1.23295 0.0014082 0
1.23368 0.00139959 0
1.23402 0.00138239 0
1.23399 0.00136272 0
1.2336 0.0013355 0
1.23287 0.00130706 0
1.23181 0.00127218 0
1.23045 0.00123734 0
1.2288 0.00119719 0
1.22689 0.00115828 0
1.22474 0.00111516 0
1.22237 0.00107433 0
1.21981 0.00103033 0
1.21708 0.000989506 0
1.21419 0.000946422 0
1.21119 0.000907177 0
1.20807 0.000866461 0
1.20487 0.000830017 0
1.20161 0.000792754 0
1.19831 0.000759959 0
1.19497 0.000726872 0
1.19163 0.00069822 0
1.18829 0.000669698 0
1.18496 0.000645372 0
1.18167 0.000621519 0
1.17841 0.000601441 0
1.17521 0.000582132 0
1.17206 0.000566024 0
1.16897 0.000550965 0
1.16594 0.000538407 0
1.16299 0.00052719 0
1.16012 0.000517677 0
1.15731 0.000509835 0
1.15459 0.00050282 0
1.15194 0.000497864 0
1.14937 0.0004928 0
1.14687 0.000490254 0
1.14444 0.000486618 0
1.14209 0.000486046 0
1.1398 0.000483359 0
1.13758 0.000484373 0
1.13543 0.000482216 0
1.13333 0.00048449 0
1.13129 0.000482503 0
1.1293 0.000485775 0
1.12736 0.000483663 0
1.12546 0.000487729 0
1.12361 0.000485257 0
1.1218 0.000489972 0
1.12003 0.000486961 0
1.11829 0.000492232 0
1.11658 0.00048855 0
1.1149 0.000494326 0
1.11324 0.000489887 0
1.11161 0.000496152 0
1.11 0.000490902 0
1.10841 0.00049767 0
1.10683 0.000491586 0
1.10527 0.000498889 0
1.10372 0.000491968 0
1.10218 0.000499855 0
1.10066 0.00049211 0
1.09914 0.000500634 0
1.09763 0.000492092 0
1.09613 0.000501311 0
1.09463 0.000492004 0
1.09314 0.00050197 0
1.09166 0.000491935 0
1.09018 0.000502694 0
1.0887 0.000491967 0
1.08723 0.000503553 0
1.08576 0.00049217 0
1.0843 0.000504603 0
1.08283 0.000492596 0
1.08137 0.000505879 0
1.07992 0.000493274 0
1.07847 0.000507388 0
1.07702 0.000494206 0
1.07557 0.000509111 0
1.07413 0.000495365 0
1.0727 0.000510997 0
1.07127 0.000496692 0
1.06985 0.000512961 0
1.06843 0.000498094 0
1.06703 0.00051488 0
1.06563 0.000499439 0
1.06424 0.000516595 0
1.06286 0.000500556 0
1.06149 0.000517904 0
1.06014 0.000501233 0
1.0588 0.000518563 0
1.05748 0.000501215 0
1.05617 0.000518286 0
1.05489 0.000500201 0
1.05362 0.000516743 0
1.05238 0.000497849 0
1.05116 0.00051356 0
1.04997 0.000493776 0
1.04881 0.000508332 0
1.04769 0.00048758 0
1.04659 0.000500638 0
1.04554 0.000478876 0
1.04453 0.00049009 0
1.04356 0.00046741 0
1.04263 0.000476457 0
1.04176 0.000453336 0
1.04094 0.000459957 0
1.04018 0.000437922 0
1.03949 0.000441992 0
1.0389 0.000425331 0
1.03848 0.00042683 0
0.951439 -7.32188e-05 0
0.910714 -0.0001642 0
0.876991 -0.000268578 0
0.849355 -0.000382672 0
0.826912 -0.000503998 0
0.808835 -0.000630324 0
0.794392 -0.00076065 0
0.782953 -0.000893681 0
0.773987 -0.00102941 0
0.767052 -0.00116703 0
0.761787 -0.00130715 0
0.757895 -0.00144918 0
0.755139 -0.00159405 0
0.753327 -0.00174122 0
0.752307 -0.0018918 0
0.751956 -0.00204516 0
0.752179 -0.0022025 0
0.7529 -0.00236305 0
0.754059 -0.00252802 0
0.755612 -0.00269647 0
0.757522 -0.00286954 0
0.759763 -0.0030461 0
0.762315 -0.00322719 0
0.765162 -0.00341146 0
0.768295 -0.00359981 0
0.771706 -0.00379066 0
0.775392 -0.00398471 0
0.779349 -0.00418016 0
0.783576 -0.00437747 0
0.788075 -0.0045746 0
0.792845 -0.00477178 0
0.797889 -0.00496672 0
0.803208 -0.0051594 0
0.808803 -0.00534729 0
0.814677 -0.00553016 0
0.820828 -0.00570528 0
0.827259 -0.0058722 0
0.833968 -0.00602804 0
0.840954 -0.00617223 0
0.848214 -0.00630181 0
0.855746 -0.00641616 0
0.863543 -0.0065123 0
0.871601 -0.0065897 0
0.879912 -0.00664547 0
0.888466 -0.00667928 0
0.897255 -0.00668844 0
0.906265 -0.00667292 0
0.915486 -0.00663036 0
0.924902 -0.00656117 0
0.934497 -0.00646338 0
0.944256 -0.00633793 0
0.95416 -0.00618333 0
0.96419 -0.00600112 0
0.974326 -0.00579031 0
0.984547 -0.00555309 0
0.994833 -0.00528893 0
1.00516 -0.0050007 0
1.01551 -0.00468828 0
1.02585 -0.00435517 0
1.03616 -0.00400159 0
1.04643 -0.00363159 0
1.05661 -0.00324563 0
1.0667 -0.00284821 0
1.07667 -0.0024399 0
1.0865 -0.00202555 0
1.09615 -0.0016057 0
1.10562 -0.00118544 0
1.11488 -0.000765136 0
1.1239 -0.000350018 0
1.13267 5.98699e-05 0
1.14117 0.000459243 0
1.14938 0.000848496 0
1.15727 0.00122238 0
1.16485 0.00158184 0
1.17208 0.00192173 0
1.17895 0.0022436 0
1.18545 0.00254249 0
1.19157 0.00282064 0
1.1973 0.00307326 0
1.20262 0.00330334 0
1.20753 0.00350628 0
1.21202 0.00368585 0
1.21609 0.00383765 0
1.21973 0.00396619 0
1.22294 0.00406726 0
1.22573 0.0041461 0
1.22809 0.00419867 0
1.23002 0.00423087 0
1.23154 0.00423877 0
1.23266 0.00422886 0
1.23337 0.00419728 0
1.2337 0.004151 0
1.23365 0.00408615 0
1.23324 0.00401009 0
1.23249 0.00391886 0
1.23142 0.00382005 0
1.23005 0.00370959 0
1.22839 0.00359514 0
1.22647 0.00347248 0
1.22431 0.00334919 0
1.22193 0.00322089 0
1.21936 0.00309492 0
1.21662 0.00296677 0
1.21373 0.00284342 0
1.21072 0.00272023 0
1.2076 0.00260373 0
1.2044 0.00248926 0
1.20113 0.00238275 0
1.19782 0.00227963 0
1.19449 0.00218515 0
1.19114 0.00209497 0
1.1878 0.00201357 0
1.18447 0.00193697 0
1.18118 0.00186884 0
1.17792 0.00180572 0
1.17471 0.00175036 0
1.17156 0.0017 0
1.16847 0.0016564 0
1.16544 0.00161767 0
1.16249 0.0015845 0
1.15961 0.00155601 0
1.15681 0.00153174 0
1.15408 0.00151199 0
1.15143 0.00149503 0
1.14886 0.00148249 0
1.14636 0.0014713 0
1.14393 0.00146455 0
1.14157 0.00145768 0
1.13929 0.00145542 0
1.13706 0.0014516 0
1.13491 0.00145268 0
1.13281 0.00145081 0
1.13076 0.0014543 0
1.12877 0.00145345 0
1.12683 0.0014586 0
1.12494 0.00145805 0
1.12309 0.00146427 0
1.12127 0.00146346 0
1.1195 0.00147034 0
1.11776 0.00146887 0
1.11605 0.00147613 0
1.11437 0.00147374 0
1.11271 0.00148124 0
1.11108 0.00147777 0
1.10946 0.00148544 0
1.10787 0.00148083 0
1.10629 0.0014887 0
1.10473 0.00148296 0
1.10319 0.00149112 0
1.10165 0.0014843 0
1.10012 0.00149286 0
1.09861 0.00148506 0
1.0971 0.00149416 0
1.0956 0.00148549 0
1.09411 0.00149527 0
1.09262 0.00148587 0
1.09113 0.00149646 0
1.08965 0.00148644 0
1.08818 0.00149797 0
1.08671 0.00148742 0
1.08524 0.00149998 0
1.08378 0.001489 0
1.08232 0.00150264 0
1.08086 0.00149129 0
1.07941 0.00150602 0
1.07796 0.00149433 0
1.07651 0.00151011 0
1.07507 0.00149808 0
1.07363 0.00151481 0
1.0722 0.00150239 0
1.07078 0.00151994 0
1.06936 0.00150704 0
1.06794 0.00152519 0
1.06654 0.00151166 0
1.06514 0.00153014 0
1.06376 0.00151582 0
1.06238 0.00153426 0
1.06102 0.00151891 0
1.05967 0.0015369 0
1.05833 0.00152023 0
1.05701 0.00153728 0
1.05571 0.00151893 0
1.05443 0.00153447 0
1.05316 0.00151405 0
1.05193 0.00152743 0
1.05071 0.00150449 0
1.04953 0.001515 0
1.04837 0.00148904 0
1.04724 0.00149594 0
1.04616 0.00146649 0
1.0451 0.00146904 0
1.04409 0.00143576 0
1.04313 0.00143338 0
1.04221 0.00139643 0
1.04134 0.001389 0
1.04052 0.00134987 0
1.03976 0.00133851 0
1.03908 0.00130224 0
1.03849 0.00129116 0
1.03807 0.00127175 0
0.951408 -0.00012185 0
0.91066 -0.000273324 0
0.876918 -0.000446945 0
0.849269 -0.000636961 0
0.826816 -0.00083869 0
0.808731 -0.00104916 0
0.794282 -0.00126577 0
0.782838 -0.00148751 0
0.773868 -0.00171304 0
0.766929 -0.00194254 0
0.761659 -0.00217534 0
0.757764 -0.00241229 0
0.755003 -0.00265297 0
0.753186 -0.00289861 0
0.752161 -0.0031488 0
0.751805 -0.00340489 0
0.752022 -0.00366636 0
0.752737 -0.00393458 0
0.753891 -0.00420881 0
0.755437 -0.00449032 0
0.757341 -0.00477812 0
0.759576 -0.0050733 0
0.762121 -0.00537456 0
0.764963 -0.00568275 0
0.76809 -0.00599622 0
0.771497 -0.00631552 0
0.775178 -0.00663863 0
0.779131 -0.00696574 0
0.783356 -0.00729442 0
0.787853 -0.00762447 0
0.792624 -0.00795307 0
0.797669 -0.00827958 0
0.80299 -0.00860078 0
0.80859 -0.00891563 0
0.814469 -0.00922055 0
0.820629 -0.00951413 0
0.82707 -0.00979246 0
0.833791 -0.0100539 0
0.840791 -0.0102943 0
0.848067 -0.0105118 0
0.855617 -0.0107023 0
0.863434 -0.0108639 0
0.871513 -0.0109925 0
0.879847 -0.0110866 0
0.888427 -0.0111422 0
0.897241 -0.0111582 0
0.90628 -0.0111312 0
0.915528 -0.0110606 0
0.924972 -0.0109437 0
0.934597 -0.0107807 0
0.944384 -0.0105695 0
0.954316 -0.0103114 0
0.964373 -0.0100052 0
0.974535 -0.0096531 0
0.984781 -0.00925482 0
0.995089 -0.00881358 0
1.00544 -0.00832998 0
1.0158 -0.00780823 0
1.02616 -0.00724964 0
1.03648 -0.00665935 0
1.04676 -0.00603923 0
1.05695 -0.00539517 0
1.06704 -0.00472943 0
1.07701 -0.00404847 0
1.08683 -0.0033547 0
1.09647 -0.00265497 0
1.10593 -0.00195163 0
1.11517 -0.0012517 0
1.12417 -0.000557259 0
1.13292 0.000124675 0
1.14139 0.000792525 0
1.14956 0.00143942 0
1.15743 0.00206445 0
1.16497 0.00266104 0
1.17216 0.00322911 0
1.17899 0.00376247 0
1.18545 0.00426199 0
1.19153 0.00472195 0
1.19721 0.00514423 0
1.20248 0.00552363 0
1.20735 0.00586312 0
1.21179 0.00615802 0
1.21581 0.00641236 0
1.21941 0.006622 0
1.22257 0.00679201 0
1.22531 0.00691872 0
1.22763 0.0070082 0
1.22952 0.00705718 0
1.231 0.00707259 0
1.23207 0.00705148 0
1.23275 0.00700151 0
1.23303 0.00691993 0
1.23295 0.00681496 0
1.23251 0.00668392 0
1.23174 0.0065354 0
1.23064 0.00636666 0
1.22924 0.00618644 0
1.22756 0.00599185 0
1.22562 0.00579157 0
1.22344 0.00558246 0
1.22104 0.00537293 0
1.21846 0.00515956 0
1.2157 0.00495033 0
1.2128 0.0047415 0
1.20978 0.00454047 0
1.20665 0.00434326 0
1.20344 0.00415655 0
1.20017 0.00397619 0
1.19686 0.00380807 0
1.19352 0.00364801 0
1.19017 0.00350102 0
1.18682 0.00336304 0
1.18349 0.00323816 0
1.18019 0.00312265 0
1.17693 0.00301962 0
1.17372 0.00292582 0
1.17056 0.00284335 0
1.16747 0.00276967 0
1.16444 0.00270581 0
1.16148 0.00265012 0
1.1586 0.00260248 0
1.1558 0.00256232 0
1.15306 0.00252833 0
1.15041 0.00250116 0
1.14783 0.00247823 0
1.14533 0.00246158 0
1.1429 0.00244724 0
1.14054 0.00243881 0
1.13825 0.00243082 0
1.13602 0.00242858 0
1.13386 0.002425 0
1.13176 0.00242719 0
1.12971 0.00242636 0
1.12772 0.00243157 0
1.12578 0.00243216 0
1.12388 0.00243926 0
1.12203 0.00244021 0
1.12021 0.00244836 0
1.11844 0.00244892 0
1.11669 0.00245754 0
1.11498 0.00245716 0
1.1133 0.00246588 0
1.11164 0.00246426 0
1.11001 0.00247289 0
1.1084 0.00246986 0
1.1068 0.00247837 0
1.10523 0.0024739 0
1.10367 0.00248237 0
1.10212 0.00247653 0
1.10058 0.00248511 0
1.09906 0.00247805 0
1.09755 0.00248695 0
1.09604 0.00247885 0
1.09454 0.00248828 0
1.09305 0.00247936 0
1.09156 0.00248955 0
1.09008 0.00248001 0
1.08861 0.00249117 0
1.08713 0.00248119 0
1.08567 0.0024935 0
1.0842 0.00248325 0
1.08275 0.00249683 0
1.08129 0.00248641 0
1.07984 0.00250133 0
1.07839 0.00249081 0
1.07694 0.00250706 0
1.0755 0.00249645 0
1.07407 0.00251393 0
1.07263 0.00250316 0
1.07121 0.00252171 0
1.06979 0.00251063 0
1.06837 0.00252998 0
1.06696 0.00251838 0
1.06557 0.00253815 0
1.06417 0.00252572 0
1.0628 0.00254544 0
1.06142 0.0025318 0
1.06007 0.00255087 0
1.05872 0.00253552 0
1.05739 0.00255324 0
1.05608 0.00253559 0
1.05478 0.00255114 0
1.05351 0.0025305 0
1.05225 0.00254293 0
1.05102 0.00251852 0
1.04981 0.00252678 0
1.04863 0.00249773 0
1.04748 0.00250068 0
1.04636 0.00246608 0
1.04528 0.00246256 0
1.04423 0.00242161 0
1.04323 0.0024106 0
1.04227 0.00236288 0
1.04135 0.00234389 0
1.04049 0.00229026 0
1.03968 0.00226426 0
1.03892 0.00220889 0
1.03824 0.00218069 0
1.03765 0.00213634 0
1.03724 0.0021199 0
0.951362 -0.000170255 0
0.910579 -0.000381825 0
0.87681 -0.00062445 0
0.84914 -0.000889766 0
0.826672 -0.00117173 0
0.808575 -0.00146552 0
0.794117 -0.00176838 0
0.782666 -0.00207786 0
0.773689 -0.00239329 0
0.766744 -0.0027136 0
0.761469 -0.00303934 0
0.757567 -0.00337008 0
0.754799 -0.00370703 0
0.752976 -0.00404998 0
0.751942 -0.0044004 0
0.751578 -0.00475807 0
0.751787 -0.0051245 0
0.752493 -0.00549927 0
0.753637 -0.00588379 0
0.755174 -0.00627734 0
0.757068 -0.00668112 0
0.759294 -0.00709402 0
0.76183 -0.00751692 0
0.764663 -0.00794827 0
0.767782 -0.00838857 0
0.771181 -0.00883576 0
0.774855 -0.00928986 0
0.778804 -0.00974827 0
0.783025 -0.0102105 0
0.78752 -0.0106733 0
0.79229 -0.0111356 0
0.797337 -0.0115938 0
0.802662 -0.012046 0
0.808268 -0.012488 0
0.814157 -0.0129175 0
0.820328 -0.0133298 0
0.826784 -0.0137221 0
0.833523 -0.0140892 0
0.840544 -0.0144283 0
0.847844 -0.0147338 0
0.85542 -0.0150026 0
0.863268 -0.0152293 0
0.87138 -0.0154111 0
0.879749 -0.0155426 0
0.888366 -0.0156214 0
0.89722 -0.0156429 0
0.906299 -0.0156053 0
0.915589 -0.0155046 0
0.925077 -0.0153402 0
0.934744 -0.0151091 0
0.944574 -0.0148118 0
0.954548 -0.0144467 0
0.964646 -0.0140156 0
0.974847 -0.013518 0
0.985129 -0.0129573 0
0.995471 -0.0123344 0
1.00585 -0.0116538 0
1.01624 -0.0109178 0
1.02662 -0.0101321 0
1.03696 -0.00929992 0
1.04725 -0.0084283 0
1.05745 -0.007521 0
1.06754 -0.00658597 0
1.0775 -0.00562743 0
1.08731 -0.00465391 0
1.09695 -0.00366974 0
1.10638 -0.00268376 0
1.11559 -0.00170013 0
1.12456 -0.00072771 0
1.13328 0.000229828 0
1.14171 0.00116383 0
1.14984 0.00207139 0
1.15765 0.00294427 0
1.16513 0.00378053 0
1.17227 0.00457256 0
1.17904 0.00531956 0
1.18544 0.00601464 0
1.19145 0.0066583 0
1.19706 0.00724447 0
1.20227 0.007775 0
1.20706 0.00824469 0
1.21143 0.00865678 0
1.21538 0.00900694 0
1.21891 0.00929979 0
1.222 0.0095318 0
1.22468 0.0097089 0
1.22692 0.00982828 0
1.22875 0.00989708 0
1.23017 0.00991307 0
1.23118 0.0098844 0
1.2318 0.00980931 0
1.23203 0.00969672 0
1.2319 0.00954515 0
1.23141 0.00936409 0
1.23059 0.00915209 0
1.22945 0.00891895 0
1.22801 0.00866311 0
1.2263 0.00839438 0
1.22432 0.00811093 0
1.22212 0.00782231 0
1.2197 0.00752632 0
1.21709 0.00723201 0
1.21432 0.00693674 0
1.2114 0.00664888 0
1.20836 0.00636533 0
1.20522 0.00609363 0
1.202 0.00583029 0
1.19872 0.00558192 0
1.1954 0.00534474 0
1.19205 0.00512437 0
1.18869 0.00491689 0
1.18534 0.0047269 0
1.182 0.00455054 0
1.1787 0.00439135 0
1.17543 0.00424576 0
1.17222 0.00411624 0
1.16906 0.00399973 0
1.16596 0.0038976 0
1.16293 0.0038075 0
1.15997 0.00372971 0
1.15708 0.00366279 0
1.15427 0.00360587 0
1.15153 0.00355863 0
1.14888 0.00351897 0
1.14629 0.0034879 0
1.14379 0.00346201 0
1.14135 0.00344377 0
1.13899 0.00342838 0
1.13669 0.00341995 0
1.13446 0.00341217 0
1.1323 0.00341091 0
1.13019 0.00340824 0
1.12814 0.00341194 0
1.12614 0.00341234 0
1.12419 0.00341922 0
1.12229 0.00342105 0
1.12044 0.00342974 0
1.11862 0.00343175 0
1.11684 0.00344127 0
1.1151 0.00344259 0
1.11338 0.00345226 0
1.1117 0.00345231 0
1.11004 0.00346175 0
1.1084 0.0034602 0
1.10679 0.00346926 0
1.1052 0.00346601 0
1.10362 0.0034747 0
1.10206 0.0034698 0
1.10052 0.00347828 0
1.09898 0.00347188 0
1.09746 0.0034804 0
1.09595 0.00347273 0
1.09445 0.00348158 0
1.09295 0.00347294 0
1.09146 0.00348243 0
1.08998 0.00347309 0
1.08851 0.00348352 0
1.08703 0.00347378 0
1.08557 0.00348542 0
1.08411 0.0034755 0
1.08265 0.00348856 0
1.0812 0.00347865 0
1.07975 0.00349327 0
1.0783 0.00348349 0
1.07686 0.0034997 0
1.07542 0.0034901 0
1.07399 0.00350785 0
1.07256 0.00349836 0
1.07114 0.00351749 0
1.06971 0.00350794 0
1.0683 0.00352815 0
1.0669 0.00351829 0
1.0655 0.00353915 0
1.06411 0.00352858 0
1.06273 0.00354952 0
1.06135 0.00353774 0
1.06 0.00355804 0
1.05865 0.00354439 0
1.05731 0.00356318 0
1.05599 0.00354688 0
1.05469 0.00356313 0
1.0534 0.00354325 0
1.05213 0.00355575 0
1.05088 0.00353122 0
1.04966 0.00353863 0
1.04846 0.00350824 0
1.04729 0.00350906 0
1.04615 0.00347151 0
1.04504 0.00346418 0
1.04397 0.00341818 0
1.04293 0.0034012 0
1.04193 0.00334574 0
1.04098 0.00331803 0
1.04007 0.00325311 0
1.03922 0.00321493 0
1.03841 0.00314327 0
1.03767 0.00309841 0
1.03699 0.00302998 0
1.03641 0.00299111 0
1.036 0.00295385 0
0.951301 -0.000218284 0
0.91047 -0.000489575 0
0.876666 -0.000800539 0
0.848969 -0.00114077 0
0.82648 -0.00150206 0
0.808369 -0.00187888 0
0.793898 -0.00226689 0
0.782437 -0.00266394 0
0.773452 -0.00306808 0
0.766499 -0.00347919 0
0.761215 -0.00389661 0
0.757304 -0.00432133 0
0.754528 -0.00475324 0
0.752695 -0.00519389 0
0.751651 -0.0056433 0
0.751276 -0.00610316 0
0.751473 -0.00657336 0
0.752167 -0.00705555 0
0.753299 -0.0075493 0
0.754823 -0.00805603 0
0.756704 -0.00857488 0
0.758917 -0.00910692 0
0.76144 -0.00965077 0
0.764261 -0.010207 0
0.767369 -0.0107737 0
0.770758 -0.0113508 0
0.774424 -0.0119358 0
0.778365 -0.0125279 0
0.78258 -0.0131237 0
0.787072 -0.013722 0
0.791842 -0.0143185 0
0.79689 -0.0149111 0
0.802221 -0.015495 0
0.807836 -0.0160672 0
0.813736 -0.0166221 0
0.819924 -0.0171562 0
0.826399 -0.0176633 0
0.833161 -0.0181393 0
0.84021 -0.0185776 0
0.847542 -0.0189738 0
0.855154 -0.0193213 0
0.863041 -0.0196156 0
0.871197 -0.0198501 0
0.879613 -0.0200209 0
0.88828 -0.0201219 0
0.897186 -0.0201499 0
0.90632 -0.0200997 0
0.915667 -0.0199691 0
0.925212 -0.0197542 0
0.934937 -0.0194544 0
0.944824 -0.0190671 0
0.954854 -0.0185935 0
0.965006 -0.0180326 0
0.975258 -0.0173873 0
0.985589 -0.0166586 0
0.995974 -0.0158511 0
1.00639 -0.0149675 0
1.01682 -0.0140141 0
1.02722 -0.0129949 0
1.03759 -0.0119179 0
1.04789 -0.0107883 0
1.0581 -0.00961524 0
1.06819 -0.0084047 0
1.07815 -0.00716677 0
1.08795 -0.00590776 0
1.09756 -0.00463829 0
1.10697 -0.00336463 0
1.11614 -0.00209756 0
1.12507 -0.000842939 0
1.13373 0.000388688 0
1.14211 0.00159223 0
1.15018 0.00275765 0
1.15792 0.00388094 0
1.16533 0.00495283 0
1.17239 0.00597066 0
1.17908 0.00692611 0
1.18539 0.00781804 0
1.19131 0.00863925 0
1.19684 0.00939022 0
1.20195 0.010065 0
1.20665 0.0106657 0
1.21093 0.0111875 0
1.21478 0.0116344 0
1.21821 0.0120027 0
1.22122 0.012298 0
1.2238 0.0125177 0
1.22596 0.0126688 0
1.2277 0.0127498 0
1.22903 0.0127689 0
1.22996 0.0127253 0
1.23051 0.0126284 0
1.23067 0.0124779 0
1.23047 0.0122839 0
1.22992 0.0120463 0
1.22904 0.0117758 0
1.22784 0.0114723 0
1.22636 0.0111465 0
1.2246 0.0107981 0
1.22258 0.0104377 0
1.22034 0.0100644 0
1.21789 0.00968851 0
1.21525 0.00930853 0
1.21245 0.00893389 0
1.20951 0.00856258 0
1.20646 0.00820308 0
1.2033 0.00785277 0
1.20006 0.00751908 0
1.19677 0.00719884 0
1.19344 0.00689838 0
1.19008 0.00661414 0
1.18671 0.00635128 0
1.18335 0.00610605 0
1.18001 0.00588248 0
1.1767 0.00567684 0
1.17343 0.00549201 0
1.17021 0.00532455 0
1.16704 0.00517622 0
1.16394 0.00504409 0
1.1609 0.00492879 0
1.15793 0.00482817 0
1.15504 0.00474174 0
1.15222 0.0046683 0
1.14948 0.0046062 0
1.14682 0.00455545 0
1.14423 0.00451316 0
1.14172 0.00448072 0
1.13928 0.00445394 0
1.13691 0.00443574 0
1.1346 0.00442057 0