# vtk DataFile Version 3.0
Flow field at step 1700
ASCII
DATASET STRUCTURED_GRID
DIMENSIONS 200 100 1
POINTS 20000 float
0.005 0.005 0
0.015 0.005 0
0.025 0.005 0
0.035 0.005 0
0.045 0.005 0
0.055 0.005 0
0.065 0.005 0
0.075 0.005 0
0.085 0.005 0
0.095 0.005 0
0.105 0.005 0
0.115 0.005 0
0.125 0.005 0
0.135 0.005 0
0.145 0.005 0
0.155 0.005 0
0.165 0.005 0
0.175 0.005 0
0.185 0.005 0
0.195 0.005 0
0.205 0.005 0
0.215 0.005 0
0.225 0.005 0
0.235 0.005 0
0.245 0.005 0
0.255 0.005 0
0.265 0.005 0
0.275 0.005 0
0.285 0.005 0
0.295 0.005 0
0.305 0.005 0
0.315 0.005 0
0.325 0.005 0
0.335 0.005 0
0.345 0.005 0
0.355 0.005 0
0.365 0.005 0
0.375 0.005 0
0.385 0.005 0
0.395 0.005 0
0.405 0.005 0
0.415 0.005 0
0.425 0.005 0
0.435 0.005 0
0.445 0.005 0
0.455 0.005 0
0.465 0.005 0
0.475 0.005 0
0.485 0.005 0
0.495 0.005 0
0.505 0.005 0
0.515 0.005 0
0.525 0.005 0
0.535 0.005 0
0.545 0.005 0
0.555 0.005 0
0.565 0.005 0
0.575 0.005 0
0.585 0.005 0
0.595 0.005 0
0.605 0.005 0
0.615 0.005 0
0.625 0.005 0
0.635 0.005 0
0.645 0.005 0
0.655 0.005 0
0.665 0.005 0
0.675 0.005 0
0.685 0.005 0
0.695 0.005 0
0.705 0.005 0
0.715 0.005 0
0.725 0.005 0
0.735 0.005 0
0.745 0.005 0
0.755 0.005 0
0.765 0.005 0
0.775 0.005 0
0.785 0.005 0
0.795 0.005 0
0.805 0.005 0
0.815 0.005 0
0.825 0.005 0
0.835 0.005 0
0.845 0.005 0
0.855 0.005 0
0.865 0.005 0
0.875 0.005 0
0.885 0.005 0
0.895 0.005 0
0.905 0.005 0
0.915 0.005 0
0.925 0.005 0
0.935 0.005 0
0.945 0.005 0
0.955 0.005 0
0.965 0.005 0
0.975 0.005 0
0.985 0.005 0
0.995 0.005 0
1.005 0.005 0
1.015 0.005 0
1.025 0.005 0
1.035 0.005 0
1.045 0.005 0
1.055 0.005 0
1.065 0.005 0
1.075 0.005 0
1.085 0.005 0
1.095 0.005 0
1.105 0.005 0
1.115 0.005 0
1.125 0.005 0
1.135 0.005 0
1.145 0.005 0
1.155 0.005 0
1.165 0.005 0
1.175 0.005 0
1.185 0.005 0
1.195 0.005 0
1.205 0.005 0
1.215 0.005 0
1.225 0.005 0
1.235 0.005 0
1.245 0.005 0
1.255 0.005 0
1.265 0.005 0
1.275 0.005 0
1.285 0.005 0
1.295 0.005 0
1.305 0.005 0
1.315 0.005 0
1.325 0.005 0
1.335 0.005 0
1.345 0.005 0
1.355 0.005 0
1.365 0.005 0
1.375 0.005 0
1.385 0.005 0
1.395 0.005 0
1.405 0.005 0
1.415 0.005 0
1.425 0.005 0
1.435 0.005 0
1.445 0.005 0
1.455 0.005 0
1.465 0.005 0
1.475 0.005 0
1.485 0.005 0
1.495 0.005 0
1.505 0.005 0
1.515 0.005 0
1.525 0.005 0
1.535 0.005 0
1.545 0.005 0
1.555 0.005 0
1.565 0.005 0
1.575 0.005 0
1.585 0.005 0
1.595 0.005 0
1.605 0.005 0
1.615 0.005 0
1.625 0.005 0
1.635 0.005 0
1.645 0.005 0
1.655 0.005 0
1.665 0.005 0
1.675 0.005 0
1.685 0.005 0
1.695 0.005 0
1.705 0.005 0
1.715 0.005 0
1.725 0.005 0
1.735 0.005 0
1.745 0.005 0
1.755 0.005 0
1.765 0.005 0
1.775 0.005 0
1.785 0.005 0
1.795 0.005 0
1.805 0.005 0
1.815 0.005 0
1.825 0.005 0
1.835 0.005 0
1.845 0.005 0
1.855 0.005 0
1.865 0.005 0
1.875 0.005 0
1.885 0.005 0
1.895 0.005 0
1.905 0.005 0
1.915 0.005 0
1.925 0.005 0
1.935 0.005 0
1.945 0.005 0
1.955 0.005 0
1.965 0.005 0
1.975 0.005 0
1.985 0.005 0
1.995 0.005 0
0.005 0.015 0
0.015 0.015 0
0.025 0.015 0
0.035 0.015 0
0.045 0.015 0
0.055 0.015 0
0.065 0.015 0
0.075 0.015 0
0.085 0.015 0
0.095 0.015 0
0.105 0.015 0
0.115 0.015 0
0.125 0.015 0
0.135 0.015 0
0.145 0.015 0
0.155 0.015 0
0.165 0.015 0
0.175 0.015 0
0.185 0.015 0
0.195 0.015 0
0.205 0.015 0
0.215 0.015 0
0.225 0.015 0
0.235 0.015 0
0.245 0.015 0
0.255 0.015 0
0.265 0.015 0
0.275 0.015 0
0.285 0.015 0
0.295 0.015 0
0.305 0.015 0
0.315 0.015 0
0.325 0.015 0
0.335 0.015 0
0.345 0.015 0
0.355 0.015 0
0.365 0.015 0
0.375 0.015 0
0.385 0.015 0
0.395 0.015 0
0.405 0.015 0
0.415 0.015 0
0.425 0.015 0
0.435 0.015 0
0.445 0.015 0
0.455 0.015 0
0.465 0.015 0
0.475 0.015 0
0.485 0.015 0
0.495 0.015 0
0.505 0.015 0
0.515 0.015 0
0.525 0.015 0
0.535 0.015 0
0.545 0.015 0
0.555 0.015 0
0.565 0.015 0
0.575 0.015 0
0.585 0.015 0
0.595 0.015 0
0.605 0.015 0
0.615 0.015 0
0.625 0.015 0
0.635 0.015 0
0.645 0.015 0
0.655 0.015 0
0.665 0.015 0
0.675 0.015 0
0.685 0.015 0
0.695 0.015 0
0.705 0.015 0
0.715 0.015 0
0.725 0.015 0
0.735 0.015 0
0.745 0.015 0
0.755 0.015 0
0.765 0.015 0
0.775 0.015 0
0.785 0.015 0
0.795 0.015 0
0.805 0.015 0
0.815 0.015 0
0.825 0.015 0
0.835 0.015 0
0.845 0.015 0
0.855 0.015 0
0.865 0.015 0
0.875 0.015 0
0.885 0.015 0
0.895 0.015 0
0.905 0.015 0
0.915 0.015 0
0.925 0.015 0
0.935 0.015 0
0.945 0.015 0
0.955 0.015 0
0.965 0.015 0
0.975 0.015 0
0.985 0.015 0
0.995 0.015 0
1.005 0.015 0
1.015 0.015 0
1.025 0.015 0
1.035 0.015 0
1.045 0.015 0
1.055 0.015 0
1.065 0.015 0
1.075 0.015 0
1.085 0.015 0
1.095 0.015 0
1.105 0.015 0
1.115 0.015 0
1.125 0.015 0
1.135 0.015 0
1.145 0.015 0
1.155 0.015 0
1.165 0.015 0
1.175 0.015 0
1.185 0.015 0
1.195 0.015 0
1.205 0.015 0
1.215 0.015 0
1.225 0.015 0
1.235 0.015 0
1.245 0.015 0
1.255 0.015 0
1.265 0.015 0
1.275 0.015 0
1.285 0.015 0
1.295 0.015 0
1.305 0.015 0
1.315 0.015 0
1.325 0.015 0
1.335 0.015 0
1.345 0.015 0
1.355 0.015 0
1.365 0.015 0
1.375 0.015 0
1.385 0.015 0
1.395 0.015 0
1.405 0.015 0
1.415 0.015 0
1.425 0.015 0
1.435 0.015 0
1.445 0.015 0
1.455 0.015 0
1.465 0.015 0
1.475 0.015 0
1.485 0.015 0
1.495 0.015 0
1.505 0.015 0
1.515 0.015 0
1.525 0.015 0
1.535 0.015 0
1.545 0.015 0
1.555 0.015 0
1.565 0.015 0
1.575 0.015 0
1.585 0.015 0
1.595 0.015 0
1.605 0.015 0
1.615 0.015 0
1.625 0.015 0
1.635 0.015 0
1.645 0.015 0
1.655 0.015 0
1.665 0.015 0
1.675 0.015 0
1.685 0.015 0
1.695 0.015 0
1.705 0.015 0
1.715 0.015 0
1.725 0.015 0
1.735 0.015 0
1.745 0.015 0
1.755 0.015 0
1.765 0.015 0
1.775 0.015 0
1.785 0.015 0
1.795 0.015 0
1.805 0.015 0
1.815 0.015 0
1.825 0.015 0
1.835 0.015 0
1.845 0.015 0
1.855 0.015 0
1.865 0.015 0
1.875 0.015 0
1.885 0.015 0
1.895 0.015 0
1.905 0.015 0
1.915 0.015 0
1.925 0.015 0
1.935 0.015 0
1.945 0.015 0
1.955 0.015 0
1.965 0.015 0
1.975 0.015 0
1.985 0.015 0
1.995 0.015 0
0.005 0.025 0
0.015 0.025 0
0.025 0.025 0
0.035 0.025 0
0.045 0.025 0
0.055 0.025 0
0.065 0.025 0
0.075 0.025 0
0.085 0.025 0
0.095 0.025 0
0.105 0.025 0
0.115 0.025 0
0.125 0.025 0
0.135 0.025 0
0.145 0.025 0
0.155 0.025 0
0.165 0.025 0
0.175 0.025 0
0.185 0.025 0
0.195 0.025 0
0.205 0.025 0
0.215 0.025 0
0.225 0.025 0
0.235 0.025 0
0.245 0.025 0
0.255 0.025 0
0.265 0.025 0
0.275 0.025 0
0.285 0.025 0
0.295 0.025 0
0.305 0.025 0
0.315 0.025 0
0.325 0.025 0
0.335 0.025 0
0.345 0.025 0
0.355 0.025 0
0.365 0.025 0
0.375 0.025 0
0.385 0.025 0
0.395 0.025 0
0.405 0.025 0
0.415 0.025 0
0.425 0.025 0
0.435 0.025 0
0.445 0.025 0
0.455 0.025 0
0.465 0.025 0
0.475 0.025 0
0.485 0.025 0
0.495 0.025 0
0.505 0.025 0
0.515 0.025 0
0.525 0.025 0
0.535 0.025 0
0.545 0.025 0
0.555 0.025 0
0.565 0.025 0
0.575 0.025 0
0.585 0.025 0
0.595 0.025 0
0.605 0.025 0
0.615 0.025 0
0.625 0.025 0
0.635 0.025 0
0.645 0.025 0
0.655 0.025 0
0.665 0.025 0
0.675 0.025 0
0.685 0.025 0
0.695 0.025 0
0.705 0.025 0
0.715 0.025 0
0.725 0.025 0
0.735 0.025 0
0.745 0.025 0
0.755 0.025 0
0.765 0.025 0
0.775 0.025 0
0.785 0.025 0
0.795 0.025 0
0.805 0.025 0
0.815 0.025 0
0.825 0.025 0
0.835 0.025 0
0.845 0.025 0
0.855 0.025 0
0.865 0.025 0
0.875 0.025 0
0.885 0.025 0
0.895 0.025 0
0.905 0.025 0
0.915 0.025 0
0.925 0.025 0
0.935 0.025 0
0.945 0.025 0
0.955 0.025 0
0.965 0.025 0
0.975 0.025 0
0.985 0.025 0
0.995 0.025 0
1.005 0.025 0
1.015 0.025 0
1.025 0.025 0
1.035 0.025 0
1.045 0.025 0
1.055 0.025 0
1.065 0.025 0
1.075 0.025 0
1.085 0.025 0
1.095 0.025 0
1.105 0.025 0
1.115 0.025 0
1.125 0.025 0
1.135 0.025 0
1.145 0.025 0
1.155 0.025 0
1.165 0.025 0
1.175 0.025 0
1.185 0.025 0
1.195 0.025 0
1.205 0.025 0
1.215 0.025 0
1.225 0.025 0
1.235 0.025 0
1.245 0.025 0
1.255 0.025 0
1.265 0.025 0
1.275 0.025 0
1.285 0.025 0
1.295 0.025 0
1.305 0.025 0
1.315 0.025 0
1.325 0.025 0
1.335 0.025 0
1.345 0.025 0
1.355 0.025 0
1.365 0.025 0
1.375 0.025 0
1.385 0.025 0
1.395 0.025 0
1.405 0.025 0
1.415 0.025 0
1.425 0.025 0
1.435 0.025 0
1.445 0.025 0
1.455 0.025 0
1.465 0.025 0
1.475 0.025 0
1.485 0.025 0
1.495 0.025 0
1.505 0.025 0
1.515 0.025 0
1.525 0.025 0
1.535 0.025 0
1.545 0.025 0
1.555 0.025 0
1.565 0.025 0
1.575 0.025 0
1.585 0.025 0
1.595 0.025 0
1.605 0.025 0
1.615 0.025 0
1.625 0.025 0
1.635 0.025 0
1.645 0.025 0
1.655 0.025 0
1.665 0.025 0
1.675 0.025 0
1.685 0.025 0
1.695 0.025 0
1.705 0.025 0
1.715 0.025 0
1.725 0.025 0
1.735 0.025 0
1.745 0.025 0
1.755 0.025 0
1.765 0.025 0
1.775 0.025 0
1.785 0.025 0
1.795 0.025 0
1.805 0.025 0
1.815 0.025 0
1.825 0.025 0
1.835 0.025 0
1.845 0.025 0
1.855 0.025 0
1.865 0.025 0
1.875 0.025 0
1.885 0.025 0
1.895 0.025 0
1.905 0.025 0
1.915 0.025 0
1.925 0.025 0
1.935 0.025 0
1.945 0.025 0
1.955 0.025 0
1.965 0.025 0
1.975 0.025 0
1.985 0.025 0
1.995 0.025 0
0.005 0.035 0
0.015 0.035 0
0.025 0.035 0
0.035 0.035 0
0.045 0.035 0
0.055 0.035 0
0.065 0.035 0
0.075 0.035 0
0.085 0.035 0
0.095 0.035 0
0.105 0.035 0
0.115 0.035 0
0.125 0.035 0
0.135 0.035 0
0.145 0.035 0
0.155 0.035 0
0.165 0.035 0
0.175 0.035 0
0.185 0.035 0
0.195 0.035 0
0.205 0.035 0
0.215 0.035 0
0.225 0.035 0
0.235 0.035 0
0.245 0.035 0
0.255 0.035 0
0.265 0.035 0
0.275 0.035 0
0.285 0.035 0
0.295 0.035 0
0.305 0.035 0
0.315 0.035 0
0.325 0.035 0
0.335 0.035 0
0.345 0.035 0
0.355 0.035 0
0.365 0.035 0
0.375 0.035 0
0.385 0.035 0
0.395 0.035 0
0.405 0.035 0
0.415 0.035 0
0.425 0.035 0
0.435 0.035 0
0.445 0.035 0
0.455 0.035 0
0.465 0.035 0
0.475 0.035 0
0.485 0.035 0
0.495 0.035 0
0.505 0.035 0
0.515 0.035 0
0.525 0.035 0
0.535 0.035 0
0.545 0.035 0
0.555 0.035 0
0.565 0.035 0
0.575 0.035 0
0.585 0.035 0
0.595 0.035 0
0.605 0.035 0
0.615 0.035 0
0.625 0.035 0
0.635 0.035 0
0.645 0.035 0
0.655 0.035 0
0.665 0.035 0
0.675 0.035 0
0.685 0.035 0
0.695 0.035 0
0.705 0.035 0
0.715 0.035 0
0.725 0.035 0
0.735 0.035 0
0.745 0.035 0
0.755 0.035 0
0.765 0.035 0
0.775 0.035 0
0.785 0.035 0
0.795 0.035 0
0.805 0.035 0
0.815 0.035 0
0.825 0.035 0
0.835 0.035 0
0.845 0.035 0
0.855 0.035 0
0.865 0.035 0
0.875 0.035 0
0.885 0.035 0
0.895 0.035 0
0.905 0.035 0
0.915 0.035 0
0.925 0.035 0
0.935 0.035 0
0.945 0.035 0
0.955 0.035 0
0.965 0.035 0
0.975 0.035 0
0.985 0.035 0
0.995 0.035 0
1.005 0.035 0
1.015 0.035 0
1.025 0.035 0
1.035 0.035 0
1.045 0.035 0
[...]
POINT_DATA 20000
VECTORS velocity float
0.9512 -2.42863e-05 0
0.910297 -5.44886e-05 0
0.876448 -8.90561e-05 0
0.848734 -0.000126951 0
0.82625 -0.000167083 0
0.808161 -0.000209078 0
0.793728 -0.000252152 0
0.782316 -0.000296431 0
0.773389 -0.000341273 0
0.7665 -0.000387149 0
0.761286 -0.000433444 0
0.757449 -0.000480862 0
0.754747 -0.000528745 0
0.75299 -0.000577954 0
0.752023 -0.000627753 0
0.751723 -0.000679103 0
0.751995 -0.000731179 0
0.752762 -0.000784998 0
0.753965 -0.000839644 0
0.755558 -0.000896157 0
0.757506 -0.000953531 0
0.759782 -0.0010128 0
0.762365 -0.00107288 0
0.765242 -0.00113476 0
0.768401 -0.00119728 0
0.771837 -0.00126139 0
0.775544 -0.00132584 0
0.779521 -0.0013915 0
0.783766 -0.00145705 0
0.788281 -0.00152328 0
0.793066 -0.0015888 0
0.798122 -0.0016543 0
0.803452 -0.00171834 0
0.809057 -0.00178148 0
0.814938 -0.00184225 0
0.821097 -0.00190112 0
0.827534 -0.00195659 0
0.834248 -0.00200902 0
0.841238 -0.00205691 0
0.848502 -0.00210058 0
0.856035 -0.00213853 0
0.863835 -0.00217104 0
0.871894 -0.00219667 0
0.880205 -0.00221573 0
0.888761 -0.00222683 0
0.89755 -0.00223035 0
0.906562 -0.00222501 0
0.915783 -0.00221129 0
0.925201 -0.00218805 0
0.934799 -0.00215592 0
0.944561 -0.00211392 0
0.954469 -0.00206286 0
0.964505 -0.00200192 0
0.974648 -0.00193211 0
0.984879 -0.00185279 0
0.995176 -0.0017652 0
1.00552 -0.00166882 0
1.01588 -0.00156513 0
1.02624 -0.00145372 0
1.03657 -0.00133629 0
1.04686 -0.00121249 0
1.05707 -0.00108423 0
1.06719 -0.000951198 0
1.07719 -0.000815448 0
1.08705 -0.000676662 0
1.09674 -0.000537027 0
1.10625 -0.000396154 0
1.11555 -0.000256333 0
1.12462 -0.000117057 0
1.13344 1.93142e-05 0
1.14199 0.000153451 0
1.15025 0.000282951 0
1.1582 0.000408686 0
1.16583 0.00052824 0
1.17312 0.000642714 0
1.18005 0.000749698 0
1.18661 0.000850552 0
1.19279 0.000942884 0
1.19858 0.00102833 0
1.20397 0.00110452 0
1.20894 0.00117339 0
1.21349 0.0012326 0
1.21762 0.00128435 0
1.22132 0.00132636 0
1.22459 0.0013611 0
1.22743 0.00138634 0
1.22985 0.00140478 0
1.23183 0.00141424 0
1.2334 0.00141762 0
1.23455 0.0014128 0
1.23531 0.00140283 0
1.23567 0.00138564 0
1.23565 0.00136439 0
1.23527 0.00133705 0
1.23454 0.00130681 0
1.23349 0.0012717 0
1.23212 0.00123485 0
1.23047 0.00119438 0
1.22855 0.00115329 0
1.22638 0.00110979 0
1.22399 0.00106667 0
1.22141 0.00102226 0
1.21865 0.000979065 0
1.21574 0.000935575 0
1.21269 0.000893933 0
1.20954 0.00085285 0
1.20631 0.000814028 0
1.203 0.000776467 0
1.19965 0.000741355 0
1.19627 0.000708059 0
1.19288 0.00067719 0
1.18949 0.000648565 0
1.18612 0.000622151 0
1.18277 0.000598307 0
1.17946 0.000576296 0
1.1762 0.000557109 0
1.173 0.00053924 0
1.16986 0.000524407 0
1.16678 0.000510272 0
1.16378 0.000499375 0
1.16085 0.000488476 0
1.15799 0.00048103 0
1.15522 0.000472824 0
1.15252 0.000468321 0
1.1499 0.000462259 0
1.14735 0.000460203 0
1.14488 0.000455761 0
1.14248 0.000455692 0
1.14015 0.000452389 0
1.13789 0.000453899 0
1.13569 0.00045131 0
1.13356 0.000454051 0
1.13148 0.000451813 0
1.12945 0.000455501 0
1.12748 0.000453312 0
1.12555 0.000457728 0
1.12367 0.000455348 0
1.12183 0.000460329 0
1.12003 0.000457572 0
1.11826 0.00046301 0
1.11653 0.000459739 0
1.11483 0.000465569 0
1.11315 0.000461688 0
1.1115 0.000467886 0
1.10987 0.000463334 0
1.10827 0.000469903 0
1.10668 0.000464648 0
1.10511 0.000471614 0
1.10355 0.000465644 0
1.10201 0.000473051 0
1.10048 0.000466369 0
1.09897 0.000474267 0
1.09746 0.00046689 0
1.09596 0.000475336 0
1.09448 0.000467283 0
1.093 0.000476331 0
1.09152 0.000467629 0
1.09006 0.000477327 0
1.0886 0.000468001 0
1.08715 0.00047839 0
1.0857 0.000468463 0
1.08426 0.00047957 0
1.08282 0.000469063 0
1.08139 0.0004809 0
1.07997 0.00046983 0
1.07855 0.000482391 0
1.07714 0.000470768 0
1.07574 0.000484026 0
1.07434 0.000471855 0
1.07296 0.000485763 0
1.07157 0.000473042 0
1.0702 0.000487527 0
1.06884 0.000474247 0
1.06749 0.000489212 0
1.06614 0.000475356 0
1.06481 0.000490678 0
1.0635 0.00047622 0
1.06219 0.000491747 0
1.0609 0.000476651 0
1.05963 0.000492205 0
1.05837 0.000476425 0
1.05714 0.0004918 0
1.05592 0.000475277 0
1.05472 0.000490239 0
1.05355 0.000472904 0
1.0524 0.000487194 0
1.05128 0.000468968 0
1.05019 0.000482305 0
1.04913 0.000463114 0
1.04811 0.000475198 0
1.04712 0.000455004 0
1.04617 0.000465527 0
1.04526 0.000444419 0
1.0444 0.00045308 0
1.04358 0.000431516 0
1.04282 0.00043804 0
1.0421 0.000417466 0
1.04146 0.00042164 0
1.0409 0.000406084 0
1.04051 0.000407689 0
0.951184 -7.28323e-05 0
0.910269 -0.000163303 0
0.876412 -0.000267064 0
0.848691 -0.000380467 0
0.826202 -0.000501045 0
0.808109 -0.000626599 0
0.793673 -0.000756139 0
0.782259 -0.000888405 0
0.773329 -0.00102338 0
0.766439 -0.00116032 0
0.761223 -0.00129979 0
0.757383 -0.00144124 0
0.75468 -0.0015856 0
0.75292 -0.00173234 0
0.75195 -0.00188256 0
0.751648 -0.00203565 0
0.751917 -0.0021928 0
0.752681 -0.00235326 0
0.753881 -0.0025182 0
0.755471 -0.00268672 0
0.757416 -0.00285992 0
0.759688 -0.00303672 0
0.762268 -0.00321808 0
0.765142 -0.00340274 0
0.768299 -0.00359149 0
0.771732 -0.00378286 0
0.775437 -0.00397742 0
0.779412 -0.00417349 0
0.783656 -0.00437141 0
0.78817 -0.00456925 0
0.792955 -0.00476709 0
0.798012 -0.0049628 0
0.803343 -0.00515617 0
0.808951 -0.00534488 0
0.814835 -0.00552845 0
0.820998 -0.00570438 0
0.82744 -0.00587199 0
0.83416 -0.00602864 0
0.841157 -0.00617348 0
0.848428 -0.00630382 0
0.855971 -0.00641875 0
0.86378 -0.00651559 0
0.87185 -0.00659348 0
0.880173 -0.00664988 0
0.888741 -0.00668407 0
0.897544 -0.00669375 0
0.906569 -0.00667848 0
0.915805 -0.00663633 0
0.925236 -0.00656725 0
0.934849 -0.00646974 0
0.944625 -0.00634424 0
0.954548 -0.00618978 0
0.964597 -0.00600736 0
0.974754 -0.00579654 0
0.984997 -0.00555892 0
0.995304 -0.00529461 0
1.00565 -0.0050058 0
1.01603 -0.00469307 0
1.02639 -0.00435921 0
1.03673 -0.00400517 0
1.04702 -0.00363424 0
1.05724 -0.00324768 0
1.06736 -0.00284916 0
1.07736 -0.00244013 0
1.08722 -0.00202452 0
1.09691 -0.00160385 0
1.10641 -0.0011822 0
1.1157 -0.000760994 0
1.12476 -0.000344382 0
1.13356 6.64372e-05 0
1.1421 0.00046737 0
1.15034 0.00085754 0
1.15828 0.001233 0
1.16589 0.00159331 0
1.17316 0.00193473 0
1.18007 0.00225732 0
1.18661 0.00255764 0
1.19277 0.00283629 0
1.19854 0.00309016 0
1.2039 0.00332045 0
1.20885 0.0035244 0
1.21338 0.0037038 0
1.21749 0.00385628 0
1.22116 0.0039842 0
1.22441 0.00408556 0
1.22723 0.00416326 0
1.22962 0.00421566 0
1.23158 0.00424615 0
1.23313 0.00425338 0
1.23426 0.00424116 0
1.235 0.00420839 0
1.23534 0.00415919 0
1.2353 0.00409265 0
1.23491 0.00401308 0
1.23416 0.00391969 0
1.23309 0.00381683 0
1.23172 0.00370381 0
1.23005 0.00358486 0
1.22812 0.00345931 0
1.22595 0.00333118 0
1.22355 0.00319978 0
1.22096 0.00306875 0
1.21819 0.0029374 0
1.21527 0.00280888 0
1.21222 0.00268253 0
1.20907 0.00256089 0
1.20583 0.00244338 0
1.20252 0.00233188 0
1.19917 0.00222594 0
1.19579 0.00212673 0
1.19239 0.00203402 0
1.189 0.00194822 0
1.18563 0.00186945 0
1.18228 0.00179732 0
1.17897 0.0017324 0
1.17571 0.00167348 0
1.1725 0.00162171 0
1.16936 0.00157502 0
1.16628 0.00153526 0
1.16327 0.00149946 0
1.16034 0.00147031 0
1.15749 0.00144386 0
1.15471 0.00142377 0
1.15201 0.00140508 0
1.14939 0.0013925 0
1.14684 0.00138 0
1.14437 0.00137344 0
1.14197 0.00136566 0
1.13964 0.00136378 0
1.13737 0.00135941 0
1.13517 0.00136103 0
1.13303 0.00135894 0
1.13095 0.00136307 0
1.12893 0.00136231 0
1.12695 0.00136815 0
1.12503 0.00136797 0
1.12314 0.0013749 0
1.1213 0.0013747 0
1.1195 0.00138226 0
1.11773 0.00138163 0
1.116 0.00138952 0
1.1143 0.00138815 0
1.11262 0.00139619 0
1.11097 0.00139391 0
1.10934 0.00140201 0
1.10773 0.00139873 0
1.10615 0.00140689 0
1.10458 0.00140259 0
1.10302 0.00141088 0
1.10148 0.0014056 0
1.09995 0.00141411 0
1.09844 0.00140791 0
1.09693 0.00141677 0
1.09543 0.00140975 0
1.09395 0.00141909 0
1.09247 0.00141136 0
1.091 0.0014213 0
1.08953 0.00141295 0
1.08808 0.00142362 0
1.08662 0.00141473 0
1.08518 0.00142621 0
1.08374 0.00141687 0
1.08231 0.00142923 0
1.08088 0.00141947 0
1.07946 0.00143273 0
1.07805 0.00142258 0
1.07664 0.00143671 0
1.07524 0.00142617 0
1.07384 0.0014411 0
1.07246 0.00143011 0
1.07108 0.00144573 0
1.06971 0.00143422 0
1.06835 0.00145034 0
1.067 0.00143817 0
1.06566 0.00145456 0
1.06433 0.00144158 0
1.06302 0.00145794 0
1.06171 0.00144392 0
1.06043 0.00145989 0
1.05916 0.00144458 0
1.0579 0.00145972 0
1.05667 0.0014428 0
1.05545 0.00145662 0
1.05426 0.00143774 0
1.05309 0.00144967 0
1.05195 0.00142842 0
1.05083 0.00143784 0
1.04974 0.00141378 0
1.04869 0.00142003 0
1.04766 0.00139273 0
1.04668 0.00139518 0
1.04573 0.00136436 0
1.04483 0.00136247 0
1.04396 0.00132827 0
1.04315 0.00132192 0
1.04239 0.00128574 0
1.04168 0.00127589 0
1.04103 0.00124239 0
1.04048 0.00123269 0
1.04009 0.00121477 0
0.951154 -0.000121208 0
0.910215 -0.000271831 0
0.87634 -0.000444432 0
0.848606 -0.000633294 0
0.826107 -0.000833786 0
0.808006 -0.00104296 0
0.793564 -0.00125828 0
0.782145 -0.00147873 0
0.773211 -0.00170304 0
0.766317 -0.00193137 0
0.761096 -0.00216311 0
0.757252 -0.00239909 0
0.754545 -0.00263894 0
0.75278 -0.00288384 0
0.751805 -0.00313345 0
0.751498 -0.00338908 0
0.751761 -0.00365026 0
0.752519 -0.00391829 0
0.753713 -0.00419251 0
0.755296 -0.00447411 0
0.757234 -0.00476217 0
0.759501 -0.00505769 0
0.762075 -0.00535947 0
0.764943 -0.00566823 0
0.768094 -0.00598245 0
0.771522 -0.00630253 0
0.775223 -0.00662657 0
0.779195 -0.00695463 0
0.783436 -0.0072844 0
0.787949 -0.00761553 0
0.792733 -0.00794534 0
0.797792 -0.00827301 0
0.803126 -0.0085955 0
0.808737 -0.00891156 0
0.814628 -0.0092178 0
0.820799 -0.00951258 0
0.82725 -0.00979222 0
0.833982 -0.0100548 0
0.840993 -0.0102965 0
0.848281 -0.0105151 0
0.855842 -0.0107067 0
0.863671 -0.0108693 0
0.871762 -0.010999 0
0.880109 -0.0110938 0
0.888702 -0.0111503 0
0.89753 -0.0111669 0
0.906583 -0.0111406 0
0.915847 -0.0110704 0
0.925307 -0.010954 0
0.934949 -0.0107911 0
0.944754 -0.0105802 0
0.954704 -0.010322 0
0.964781 -0.0100158 0
0.974963 -0.00966328 0
0.985231 -0.00926475 0
0.995561 -0.00882282 0
1.00593 -0.00833871 0
1.01632 -0.00781598 0
1.0267 -0.00725663 0
1.03706 -0.00666506 0
1.04735 -0.00604392 0
1.05758 -0.0053983 0
1.0677 -0.00473131 0
1.0777 -0.00404854 0
1.08755 -0.00335331 0
1.09723 -0.00265154 0
1.10671 -0.00194658 0
1.11599 -0.00124444 0
1.12503 -0.000548267 0
1.13381 0.000136014 0
1.14232 0.000805623 0
1.15053 0.00145491 0
1.15844 0.00208165 0
1.16601 0.0026806 0
1.17324 0.00325023 0
1.18011 0.00378581 0
1.18661 0.00428661 0
1.19273 0.00474853 0
1.19845 0.0051717 0
1.20377 0.00555268 0
1.20867 0.00589253 0
1.21315 0.00618849 0
1.21721 0.00644254 0
1.22084 0.0066526 0
1.22404 0.00682154 0
1.22681 0.00694794 0
1.22916 0.00703546 0
1.23108 0.0070833 0
1.23258 0.0070958 0
1.23368 0.00707267 0
1.23437 0.00701881 0
1.23468 0.00693433 0
1.23461 0.00682451 0
1.23418 0.00668972 0
1.2334 0.00653544 0
1.23231 0.00636219 0
1.2309 0.00617543 0
1.22922 0.00597571 0
1.22726 0.00576825 0
1.22507 0.00555354 0
1.22266 0.00533639 0
1.22005 0.00511714 0
1.21727 0.00490005 0
1.21434 0.00468527 0
1.21128 0.00447634 0
1.20812 0.0042733 0
1.20487 0.00407885 0
1.20156 0.00389295 0
1.1982 0.00371744 0
1.19481 0.00355227 0
1.19141 0.00339838 0
1.18802 0.00325583 0
1.18464 0.00312467 0
1.18129 0.0030052 0
1.17797 0.00289656 0
1.17471 0.00279946 0
1.1715 0.00271212 0
1.16836 0.00263581 0
1.16528 0.00256782 0
1.16227 0.00251014 0
1.15933 0.0024591 0
1.15648 0.00241757 0
1.1537 0.00238089 0
1.15099 0.0023529 0
1.14837 0.00232795 0
1.14582 0.00231096 0
1.14334 0.00229522 0
1.14094 0.00228688 0
1.1386 0.00227807 0
1.13634 0.00227625 0
1.13413 0.00227235 0
1.13199 0.00227525 0
1.12991 0.00227456 0
1.12788 0.00228068 0
1.1259 0.00228181 0
1.12397 0.00228996 0
1.12209 0.00229181 0
1.12025 0.00230108 0
1.11844 0.00230284 0
1.11667 0.0023126 0
1.11494 0.00231367 0
1.11323 0.0023235 0
1.11156 0.00232354 0
1.10991 0.0023332 0
1.10828 0.00233199 0
1.10667 0.00234141 0
1.10508 0.00233888 0
1.10351 0.0023481 0
1.10196 0.00234429 0
1.10042 0.00235342 0
1.09889 0.00234844 0
1.09738 0.00235766 0
1.09587 0.00235165 0
1.09438 0.00236116 0
1.09289 0.0023543 0
1.09142 0.0023643 0
1.08995 0.00235677 0
1.08849 0.00236747 0
1.08703 0.00235942 0
1.08559 0.00237098 0
1.08414 0.00236256 0
1.08271 0.0023751 0
1.08128 0.0023664 0
1.07986 0.00238 0
1.07844 0.00237108 0
1.07703 0.00238575 0
1.07563 0.0023766 0
1.07423 0.00239227 0
1.07284 0.00238284 0
1.07146 0.00239936 0
1.07009 0.00238952 0
1.06872 0.00240668 0
1.06737 0.00239623 0
1.06602 0.0024137 0
1.06469 0.00240237 0
1.06337 0.00241974 0
1.06205 0.00240718 0
1.06076 0.00242394 0
1.05948 0.00240971 0
1.05821 0.00242525 0
1.05696 0.00240882 0
1.05574 0.00242241 0
1.05453 0.00240318 0
1.05334 0.00241399 0
1.05218 0.00239124 0
1.05104 0.00239835 0
1.04993 0.00237133 0
1.04884 0.00237374 0
1.04779 0.00234162 0
1.04678 0.00233831 0
1.0458 0.00230038 0
1.04485 0.00229044 0
1.04395 0.00224635 0
1.0431 0.00222934 0
1.04229 0.00217989 0
1.04153 0.00215666 0
1.04082 0.0021057 0
1.04018 0.00208048 0
1.03963 0.0020397 0
1.03924 0.00202497 0
0.951108 -0.000169359 0
0.910134 -0.000379745 0
0.876233 -0.000620945 0
0.848478 -0.000884657 0
0.825964 -0.00116489 0
0.807851 -0.00145689 0
0.793401 -0.00175793 0
0.781974 -0.00206563 0
0.773033 -0.00237935 0
0.766133 -0.00269805 0
0.760906 -0.00302229 0
0.757056 -0.00335169 0
0.754342 -0.00368745 0
0.75257 -0.0040294 0
0.751587 -0.004379 0
0.751272 -0.00473605 0
0.751526 -0.00510205 0
0.752275 -0.00547659 0
0.75346 -0.00586106 0
0.755034 -0.00625477 0
0.756962 -0.00665887 0
0.759219 -0.0070723 0
0.761784 -0.00749586 0
0.764643 -0.00792808 0
0.767786 -0.00836935 0
0.771206 -0.0088177 0
0.774901 -0.00927303 0
0.778867 -0.00973285 0
0.783105 -0.0101965 0
0.787615 -0.0106609 0
0.792399 -0.0111248 0
0.797459 -0.0115847 0
0.802797 -0.0120386 0
0.808415 -0.0124824 0
0.814315 -0.0129136 0
0.820498 -0.0133277 0
0.826964 -0.0137217 0
0.833714 -0.0140906 0
0.840746 -0.0144313 0
0.848057 -0.0147384 0
0.855645 -0.0150087 0
0.863504 -0.015237 0
0.871628 -0.01542 0
0.88001 -0.0155528 0
0.88864 -0.0156327 0
0.897508 -0.0156552 0
0.906602 -0.0156183 0
0.915908 -0.0155185 0
0.925412 -0.0153544 0
0.935096 -0.0151238 0
0.944944 -0.0148266 0
0.954937 -0.0144617 0
0.965054 -0.0140302 0
0.975276 -0.0135325 0
0.98558 -0.0129711 0
0.995943 -0.0123475 0
1.00634 -0.0116659 0
1.01676 -0.0109288 0
1.02716 -0.0101416 0
1.03753 -0.00930814 0
1.04785 -0.00843461 0
1.05808 -0.00752564 0
1.0682 -0.00658834 0
1.07819 -0.00562781 0
1.08803 -0.00465168 0
1.0977 -0.00366525 0
1.10717 -0.00267639 0
1.11642 -0.0016903 0
1.12542 -0.000714797 0
1.13417 0.000245308 0
1.14264 0.00118251 0
1.15081 0.00209263 0
1.15866 0.00296871 0
1.16618 0.00380741 0
1.17335 0.00460249 0
1.18017 0.00535164 0
1.1866 0.00604948 0
1.19265 0.00669484 0
1.1983 0.00728329 0
1.20355 0.00781488 0
1.20838 0.00828621 0
1.21279 0.00869855 0
1.21678 0.00904953 0
1.22034 0.00934163 0
1.22347 0.00957347 0
1.22617 0.00974867 0
1.22845 0.00986677 0
1.23031 0.0099324 0
1.23175 0.00994589 0
1.23278 0.00991273 0
1.23342 0.00983389 0
1.23367 0.00971547 0
1.23355 0.00955892 0
1.23307 0.00937074 0
1.23225 0.00915264 0
1.23111 0.00891122 0
1.22967 0.0086483 0
1.22795 0.00837032 0
1.22597 0.00807902 0
1.22375 0.00778043 0
1.22131 0.00747606 0
1.21868 0.00717134 0
1.21588 0.00686744 0
1.21293 0.00656899 0
1.20986 0.00627684 0
1.20668 0.00599467 0
1.20342 0.00572301 0
1.2001 0.00546454 0
1.19673 0.00521954 0
1.19334 0.00498966 0
1.18994 0.00477505 0
1.18653 0.00457631 0
1.18315 0.00439364 0
1.17979 0.0042266 0
1.17648 0.0040756 0
1.17321 0.0039392 0
1.17 0.00381821 0
1.16685 0.00371021 0
1.16376 0.00361656 0
1.16075 0.00353391 0
1.15781 0.00346434 0
1.15495 0.00340354 0
1.15217 0.00335447 0
1.14946 0.00331187 0
1.14683 0.00327972 0
1.14427 0.00325175 0
1.14179 0.00323309 0
1.13939 0.00321641 0
1.13705 0.00320813 0
1.13478 0.00319977 0
1.13257 0.00319912 0
1.13042 0.00319651 0
1.12834 0.0032012 0
1.1263 0.0032022 0
1.12432 0.00321035 0
1.12239 0.00321325 0
1.1205 0.00322341 0
1.11866 0.00322691 0
1.11685 0.00323801 0
1.11508 0.00324114 0
1.11334 0.00325243 0
1.11164 0.00325456 0
1.10996 0.0032656 0
1.10831 0.00326634 0
1.10668 0.0032769 0
1.10507 0.00327609 0
1.10348 0.00328614 0
1.10191 0.00328375 0
1.10036 0.00329339 0
1.09882 0.00328955 0
1.0973 0.00329898 0
1.09579 0.00329387 0
1.09429 0.00330335 0
1.09279 0.0032972 0
1.09131 0.00330701 0
1.08984 0.00330007 0
1.08838 0.00331048 0
1.08692 0.003303 0
1.08547 0.00331426 0
1.08403 0.00330645 0
1.08259 0.00331877 0
1.08116 0.00331078 0
1.07974 0.00332429 0
1.07832 0.00331624 0
1.07691 0.003331 0
1.07551 0.00332291 0
1.07411 0.00333889 0
1.07272 0.00333072 0
1.07134 0.00334778 0
1.06997 0.00333938 0
1.0686 0.00335728 0
1.06724 0.00334841 0
1.0659 0.00336677 0
1.06456 0.00335709 0
1.06323 0.00337544 0
1.06192 0.00336449 0
1.06062 0.00338219 0
1.05933 0.00336939 0
1.05806 0.00338569 0
1.0568 0.00337035 0
1.05556 0.00338433 0
1.05434 0.00336563 0
1.05314 0.00337625 0
1.05196 0.00335322 0
1.05081 0.00335928 0
1.04967 0.00333086 0
1.04857 0.00333106 0
1.0475 0.00329608 0
1.04646 0.00328903 0
1.04545 0.00324636 0
1.04447 0.00323073 0
1.04354 0.00317947 0
1.04265 0.00315432 0
1.0418 0.0030945 0
1.04099 0.00306003 0
1.04024 0.00299416 0
1.03954 0.00295375 0
1.03891 0.00289094 0
1.03837 0.00285593 0
1.03798 0.00282174 0
0.951047 -0.000217141 0
0.910027 -0.000486914 0
0.876089 -0.000796059 0
0.848308 -0.00113423 0
0.825773 -0.00149332 0
0.807646 -0.00186784 0
0.793183 -0.00225354 0
0.781746 -0.00264831 0
0.772797 -0.00305026 0
0.765888 -0.0034593 0
0.760654 -0.00387482 0
0.756795 -0.00429781 0
0.754071 -0.00472823 0
0.75229 -0.00516759 0
0.751297 -0.00561596 0
0.75097 -0.00607502 0
0.751213 -0.00654468 0
0.75195 -0.00702656 0
0.753122 -0.00752027 0
0.754683 -0.00802717 0
0.756599 -0.00854647 0
0.758842 -0.00907914 0
0.761394 -0.0096239 0
0.764241 -0.0101812 0
0.767373 -0.0107492 0
0.770783 -0.0113277 0
0.774469 -0.0119143 0
0.778428 -0.0125081 0
0.78266 -0.0131059 0
0.787167 -0.0137061 0
0.791951 -0.0143048 0
0.797013 -0.0148995 0
0.802356 -0.0154856 0
0.807982 -0.01606 0
0.813894 -0.0166173 0
0.820092 -0.0171536 0
0.826579 -0.017663 0
0.833352 -0.0181411 0
0.840412 -0.0185816 0
0.847755 -0.0189798 0
0.855379 -0.0193293 0
0.863278 -0.0196253 0
0.871445 -0.0198617 0
0.879874 -0.020034 0
0.888554 -0.0201365 0
0.897475 -0.0201657 0
0.906624 -0.0201166 0
0.915986 -0.0199868 0
0.925547 -0.0197727 0
0.935289 -0.0194732 0
0.945194 -0.0190863 0
0.955242 -0.0186125 0
0.965414 -0.0180515 0
0.975687 -0.0174057 0
0.986039 -0.0166764 0
0.996448 -0.0158678 0
1.00689 -0.0149831 0
1.01734 -0.0140281 0
1.02777 -0.0130073 0
1.03816 -0.0119282 0
1.04849 -0.0107966 0
1.05873 -0.00962097 0
1.06886 -0.008408 0
1.07884 -0.007167 0
1.08867 -0.00590518 0
1.09832 -0.00463225 0
1.10776 -0.00335548 0
1.11697 -0.00208465 0
1.12593 -0.000826707 0
1.13463 0.000408878 0
1.14304 0.00161581 0
1.15115 0.00278525 0
1.15894 0.00391186 0
1.16638 0.00498766 0
1.17348 0.00600854 0
1.18021 0.0069676 0
1.18656 0.00786212 0
1.19252 0.00868643 0
1.19808 0.00943929 0
1.20324 0.0101164 0
1.20797 0.0107181 0
1.21229 0.0112413 0
1.21618 0.011688 0
1.21965 0.0120566 0
1.22269 0.0123503 0
1.2253 0.0125688 0
1.22748 0.0127168 0
1.22925 0.0127951 0
1.23061 0.0128095 0
1.23156 0.0127617 0
1.23212 0.0126583 0
1.2323 0.0125019 0
1.23211 0.0122998 0
1.23157 0.0120549 0
1.2307 0.0117748 0
1.2295 0.0114625 0
1.22801 0.0111257 0
1.22624 0.0107675 0
1.22422 0.010395 0
1.22196 0.0100111 0
1.21949 0.00962247 0
1.21683 0.00923136 0
1.21401 0.00884359 0
1.21104 0.00846101 0
1.20794 0.00808837 0
1.20475 0.00772699 0
1.20148 0.00738049 0
1.19814 0.0070497 0
1.19477 0.00673705 0
1.19136 0.00644302 0
1.18795 0.00616885 0
1.18454 0.00591481 0
1.18115 0.00568099 0
1.17779 0.00546763 0
1.17447 0.00527374 0
1.17119 0.00509974 0
1.16798 0.0049436 0
1.16482 0.00480612 0
1.16173 0.00468429 0
1.15872 0.0045795 0
1.15577 0.00448779 0
1.15291 0.00441129 0
1.15012 0.0043451 0
1.1474 0.00429231 0
1.14477 0.00424706 0
1.14221 0.00421349 0
1.13972 0.00418477 0
1.13731 0.00416625 0