# vtk DataFile Version 3.0
Flow field at step 850
ASCII
DATASET STRUCTURED_GRID
DIMENSIONS 200 100 1
POINTS 20000 float
0.005 0.005 0
0.015 0.005 0
0.025 0.005 0
0.035 0.005 0
0.045 0.005 0
0.055 0.005 0
0.065 0.005 0
0.075 0.005 0
0.085 0.005 0
0.095 0.005 0
0.105 0.005 0
0.115 0.005 0
0.125 0.005 0
0.135 0.005 0
0.145 0.005 0
0.155 0.005 0
0.165 0.005 0
0.175 0.005 0
0.185 0.005 0
0.195 0.005 0
0.205 0.005 0
0.215 0.005 0
0.225 0.005 0
0.235 0.005 0
0.245 0.005 0
0.255 0.005 0
0.265 0.005 0
0.275 0.005 0
0.285 0.005 0
0.295 0.005 0
0.305 0.005 0
0.315 0.005 0
0.325 0.005 0
0.335 0.005 0
0.345 0.005 0
0.355 0.005 0
0.365 0.005 0
0.375 0.005 0
0.385 0.005 0
0.395 0.005 0
0.405 0.005 0
0.415 0.005 0
0.425 0.005 0
0.435 0.005 0
0.445 0.005 0
0.455 0.005 0
0.465 0.005 0
0.475 0.005 0
0.485 0.005 0
0.495 0.005 0
0.505 0.005 0
0.515 0.005 0
0.525 0.005 0
0.535 0.005 0
0.545 0.005 0
0.555 0.005 0
0.565 0.005 0
0.575 0.005 0
0.585 0.005 0
0.595 0.005 0
0.605 0.005 0
0.615 0.005 0
0.625 0.005 0
0.635 0.005 0
0.645 0.005 0
0.655 0.005 0
0.665 0.005 0
0.675 0.005 0
0.685 0.005 0
0.695 0.005 0
0.705 0.005 0
0.715 0.005 0
0.725 0.005 0
0.735 0.005 0
0.745 0.005 0
0.755 0.005 0
0.765 0.005 0
0.775 0.005 0
0.785 0.005 0
0.795 0.005 0
0.805 0.005 0
0.815 0.005 0
0.825 0.005 0
0.835 0.005 0
0.845 0.005 0
0.855 0.005 0
0.865 0.005 0
0.875 0.005 0
0.885 0.005 0
0.895 0.005 0
0.905 0.005 0
0.915 0.005 0
0.925 0.005 0
0.935 0.005 0
0.945 0.005 0
0.955 0.005 0
0.965 0.005 0
0.975 0.005 0
0.985 0.005 0
0.995 0.005 0
1.005 0.005 0
1.015 0.005 0
1.025 0.005 0
1.035 0.005 0
1.045 0.005 0
1.055 0.005 0
1.065 0.005 0
1.075 0.005 0
1.085 0.005 0
1.095 0.005 0
1.105 0.005 0
1.115 0.005 0
1.125 0.005 0
1.135 0.005 0
1.145 0.005 0
1.155 0.005 0
1.165 0.005 0
1.175 0.005 0
1.185 0.005 0
1.195 0.005 0
1.205 0.005 0
1.215 0.005 0
1.225 0.005 0
1.235 0.005 0
1.245 0.005 0
1.255 0.005 0
1.265 0.005 0
1.275 0.005 0
1.285 0.005 0
1.295 0.005 0
1.305 0.005 0
1.315 0.005 0
1.325 0.005 0
1.335 0.005 0
1.345 0.005 0
1.355 0.005 0
1.365 0.005 0
1.375 0.005 0
1.385 0.005 0
1.395 0.005 0
1.405 0.005 0
1.415 0.005 0
1.425 0.005 0
1.435 0.005 0
1.445 0.005 0
1.455 0.005 0
1.465 0.005 0
1.475 0.005 0
1.485 0.005 0
1.495 0.005 0
1.505 0.005 0
1.515 0.005 0
1.525 0.005 0
1.535 0.005 0
1.545 0.005 0
1.555 0.005 0
1.565 0.005 0
1.575 0.005 0
1.585 0.005 0
1.595 0.005 0
1.605 0.005 0
1.615 0.005 0
1.625 0.005 0
1.635 0.005 0
1.645 0.005 0
1.655 0.005 0
1.665 0.005 0
1.675 0.005 0
1.685 0.005 0
1.695 0.005 0
1.705 0.005 0
1.715 0.005 0
1.725 0.005 0
1.735 0.005 0
1.745 0.005 0
1.755 0.005 0
1.765 0.005 0
1.775 0.005 0
1.785 0.005 0
1.795 0.005 0
1.805 0.005 0
1.815 0.005 0
1.825 0.005 0
1.835 0.005 0
1.845 0.005 0
1.855 0.005 0
1.865 0.005 0
1.875 0.005 0
1.885 0.005 0
1.895 0.005 0
1.905 0.005 0
1.915 0.005 0
1.925 0.005 0
1.935 0.005 0
1.945 0.005 0
1.955 0.005 0
1.965 0.005 0
1.975 0.005 0
1.985 0.005 0
1.995 0.005 0
0.005 0.015 0
0.015 0.015 0
0.025 0.015 0
0.035 0.015 0
0.045 0.015 0
0.055 0.015 0
0.065 0.015 0
0.075 0.015 0
0.085 0.015 0
0.095 0.015 0
0.105 0.015 0
0.115 0.015 0
0.125 0.015 0
0.135 0.015 0
0.145 0.015 0
0.155 0.015 0
0.165 0.015 0
0.175 0.015 0
0.185 0.015 0
0.195 0.015 0
0.205 0.015 0
0.215 0.015 0
0.225 0.015 0
0.235 0.015 0
0.245 0.015 0
0.255 0.015 0
0.265 0.015 0
0.275 0.015 0
0.285 0.015 0
0.295 0.015 0
0.305 0.015 0
0.315 0.015 0
0.325 0.015 0
0.335 0.015 0
0.345 0.015 0
0.355 0.015 0
0.365 0.015 0
0.375 0.015 0
0.385 0.015 0
0.395 0.015 0
0.405 0.015 0
0.415 0.015 0
0.425 0.015 0
0.435 0.015 0
0.445 0.015 0
0.455 0.015 0
0.465 0.015 0
0.475 0.015 0
0.485 0.015 0
0.495 0.015 0
0.505 0.015 0
0.515 0.015 0
0.525 0.015 0
0.535 0.015 0
0.545 0.015 0
0.555 0.015 0
0.565 0.015 0
0.575 0.015 0
0.585 0.015 0
0.595 0.015 0
0.605 0.015 0
0.615 0.015 0
0.625 0.015 0
0.635 0.015 0
0.645 0.015 0
0.655 0.015 0
0.665 0.015 0
0.675 0.015 0
0.685 0.015 0
0.695 0.015 0
0.705 0.015 0
0.715 0.015 0
0.725 0.015 0
0.735 0.015 0
0.745 0.015 0
0.755 0.015 0
0.765 0.015 0
0.775 0.015 0
0.785 0.015 0
0.795 0.015 0
0.805 0.015 0
0.815 0.015 0
0.825 0.015 0
0.835 0.015 0
0.845 0.015 0
0.855 0.015 0
0.865 0.015 0
0.875 0.015 0
0.885 0.015 0
0.895 0.015 0
0.905 0.015 0
0.915 0.015 0
0.925 0.015 0
0.935 0.015 0
0.945 0.015 0
0.955 0.015 0
0.965 0.015 0
0.975 0.015 0
0.985 0.015 0
0.995 0.015 0
1.005 0.015 0
1.015 0.015 0
1.025 0.015 0
1.035 0.015 0
1.045 0.015 0
1.055 0.015 0
1.065 0.015 0
1.075 0.015 0
1.085 0.015 0
1.095 0.015 0
1.105 0.015 0
1.115 0.015 0
1.125 0.015 0
1.135 0.015 0
1.145 0.015 0
1.155 0.015 0
1.165 0.015 0
1.175 0.015 0
1.185 0.015 0
1.195 0.015 0
1.205 0.015 0
1.215 0.015 0
1.225 0.015 0
1.235 0.015 0
1.245 0.015 0
1.255 0.015 0
1.265 0.015 0
1.275 0.015 0
1.285 0.015 0
1.295 0.015 0
1.305 0.015 0
1.315 0.015 0
1.325 0.015 0
1.335 0.015 0
1.345 0.015 0
1.355 0.015 0
1.365 0.015 0
1.375 0.015 0
1.385 0.015 0
1.395 0.015 0
1.405 0.015 0
1.415 0.015 0
1.425 0.015 0
1.435 0.015 0
1.445 0.015 0
1.455 0.015 0
1.465 0.015 0
1.475 0.015 0
1.485 0.015 0
1.495 0.015 0
1.505 0.015 0
1.515 0.015 0
1.525 0.015 0
1.535 0.015 0
1.545 0.015 0
1.555 0.015 0
1.565 0.015 0
1.575 0.015 0
1.585 0.015 0
1.595 0.015 0
1.605 0.015 0
1.615 0.015 0
1.625 0.015 0
1.635 0.015 0
1.645 0.015 0
1.655 0.015 0
1.665 0.015 0
1.675 0.015 0
1.685 0.015 0
1.695 0.015 0
1.705 0.015 0
1.715 0.015 0
1.725 0.015 0
1.735 0.015 0
1.745 0.015 0
1.755 0.015 0
1.765 0.015 0
1.775 0.015 0
1.785 0.015 0
1.795 0.015 0
1.805 0.015 0
1.815 0.015 0
1.825 0.015 0
1.835 0.015 0
1.845 0.015 0
1.855 0.015 0
1.865 0.015 0
1.875 0.015 0
1.885 0.015 0
1.895 0.015 0
1.905 0.015 0
1.915 0.015 0
1.925 0.015 0
1.935 0.015 0
1.945 0.015 0
1.955 0.015 0
1.965 0.015 0
1.975 0.015 0
1.985 0.015 0
1.995 0.015 0
0.005 0.025 0
0.015 0.025 0
0.025 0.025 0
0.035 0.025 0
0.045 0.025 0
0.055 0.025 0
0.065 0.025 0
0.075 0.025 0
0.085 0.025 0
0.095 0.025 0
0.105 0.025 0
0.115 0.025 0
0.125 0.025 0
0.135 0.025 0
0.145 0.025 0
0.155 0.025 0
0.165 0.025 0
0.175 0.025 0
0.185 0.025 0
0.195 0.025 0
0.205 0.025 0
0.215 0.025 0
0.225 0.025 0
0.235 0.025 0
0.245 0.025 0
0.255 0.025 0
0.265 0.025 0
0.275 0.025 0
0.285 0.025 0
0.295 0.025 0
0.305 0.025 0
0.315 0.025 0
0.325 0.025 0
0.335 0.025 0
0.345 0.025 0
0.355 0.025 0
0.365 0.025 0
0.375 0.025 0
0.385 0.025 0
0.395 0.025 0
0.405 0.025 0
0.415 0.025 0
0.425 0.025 0
0.435 0.025 0
0.445 0.025 0
0.455 0.025 0
0.465 0.025 0
0.475 0.025 0
0.485 0.025 0
0.495 0.025 0
0.505 0.025 0
0.515 0.025 0
0.525 0.025 0
0.535 0.025 0
0.545 0.025 0
0.555 0.025 0
0.565 0.025 0
0.575 0.025 0
0.585 0.025 0
0.595 0.025 0
0.605 0.025 0
0.615 0.025 0
0.625 0.025 0
0.635 0.025 0
0.645 0.025 0
0.655 0.025 0
0.665 0.025 0
0.675 0.025 0
0.685 0.025 0
0.695 0.025 0
0.705 0.025 0
0.715 0.025 0
0.725 0.025 0
0.735 0.025 0
0.745 0.025 0
0.755 0.025 0
0.765 0.025 0
0.775 0.025 0
0.785 0.025 0
0.795 0.025 0
0.805 0.025 0
0.815 0.025 0
0.825 0.025 0
0.835 0.025 0
0.845 0.025 0
0.855 0.025 0
0.865 0.025 0
0.875 0.025 0
0.885 0.025 0
0.895 0.025 0
0.905 0.025 0
0.915 0.025 0
0.925 0.025 0
0.935 0.025 0
0.945 0.025 0
0.955 0.025 0
0.965 0.025 0
0.975 0.025 0
0.985 0.025 0
0.995 0.025 0
1.005 0.025 0
1.015 0.025 0
1.025 0.025 0
1.035 0.025 0
1.045 0.025 0
1.055 0.025 0
1.065 0.025 0
1.075 0.025 0
1.085 0.025 0
1.095 0.025 0
1.105 0.025 0
1.115 0.025 0
1.125 0.025 0
1.135 0.025 0
1.145 0.025 0
1.155 0.025 0
1.165 0.025 0
1.175 0.025 0
1.185 0.025 0
1.195 0.025 0
1.205 0.025 0
1.215 0.025 0
1.225 0.025 0
1.235 0.025 0
1.245 0.025 0
1.255 0.025 0
1.265 0.025 0
1.275 0.025 0
1.285 0.025 0
1.295 0.025 0
1.305 0.025 0
1.315 0.025 0
1.325 0.025 0
1.335 0.025 0
1.345 0.025 0
1.355 0.025 0
1.365 0.025 0
1.375 0.025 0
1.385 0.025 0
1.395 0.025 0
1.405 0.025 0
1.415 0.025 0
1.425 0.025 0
1.435 0.025 0
1.445 0.025 0
1.455 0.025 0
1.465 0.025 0
1.475 0.025 0
1.485 0.025 0
1.495 0.025 0
1.505 0.025 0
1.515 0.025 0
1.525 0.025 0
1.535 0.025 0
1.545 0.025 0
1.555 0.025 0
1.565 0.025 0
1.575 0.025 0
1.585 0.025 0
1.595 0.025 0
1.605 0.025 0
1.615 0.025 0
1.625 0.025 0
1.635 0.025 0
1.645 0.025 0
1.655 0.025 0
1.665 0.025 0
1.675 0.025 0
1.685 0.025 0
1.695 0.025 0
1.705 0.025 0
1.715 0.025 0
1.725 0.025 0
1.735 0.025 0
1.745 0.025 0
1.755 0.025 0
1.765 0.025 0
1.775 0.025 0
1.785 0.025 0
1.795 0.025 0
1.805 0.025 0
1.815 0.025 0
1.825 0.025 0
1.835 0.025 0
1.845 0.025 0
1.855 0.025 0
1.865 0.025 0
1.875 0.025 0
1.885 0.025 0
1.895 0.025 0
1.905 0.025 0
1.915 0.025 0
1.925 0.025 0
1.935 0.025 0
1.945 0.025 0
1.955 0.025 0
1.965 0.025 0
1.975 0.025 0
1.985 0.025 0
1.995 0.025 0
0.005 0.035 0
0.015 0.035 0
0.025 0.035 0
0.035 0.035 0
0.045 0.035 0
0.055 0.035 0
0.065 0.035 0
0.075 0.035 0
0.085 0.035 0
0.095 0.035 0
0.105 0.035 0
0.115 0.035 0
0.125 0.035 0
0.135 0.035 0
0.145 0.035 0
0.155 0.035 0
0.165 0.035 0
0.175 0.035 0
0.185 0.035 0
0.195 0.035 0
0.205 0.035 0
0.215 0.035 0
0.225 0.035 0
0.235 0.035 0
0.245 0.035 0
0.255 0.035 0
0.265 0.035 0
0.275 0.035 0
0.285 0.035 0
0.295 0.035 0
0.305 0.035 0
0.315 0.035 0
0.325 0.035 0
0.335 0.035 0
0.345 0.035 0
0.355 0.035 0
0.365 0.035 0
0.375 0.035 0
0.385 0.035 0
0.395 0.035 0
0.405 0.035 0
0.415 0.035 0
0.425 0.035 0
0.435 0.035 0
0.445 0.035 0
0.455 0.035 0
0.465 0.035 0
0.475 0.035 0
0.485 0.035 0
0.495 0.035 0
0.505 0.035 0
0.515 0.035 0
0.525 0.035 0
0.535 0.035 0
0.545 0.035 0
0.555 0.035 0
0.565 0.035 0
0.575 0.035 0
0.585 0.035 0
0.595 0.035 0
0.605 0.035 0
0.615 0.035 0
0.625 0.035 0
0.635 0.035 0
0.645 0.035 0
0.655 0.035 0
0.665 0.035 0
0.675 0.035 0
0.685 0.035 0
0.695 0.035 0
0.705 0.035 0
0.715 0.035 0
0.725 0.035 0
0.735 0.035 0
0.745 0.035 0
0.755 0.035 0
0.765 0.035 0
0.775 0.035 0
0.785 0.035 0
0.795 0.035 0
0.805 0.035 0
0.815 0.035 0
0.825 0.035 0
0.835 0.035 0
0.845 0.035 0
0.855 0.035 0
0.865 0.035 0
0.875 0.035 0
0.885 0.035 0
0.895 0.035 0
0.905 0.035 0
0.915 0.035 0
0.925 0.035 0
0.935 0.035 0
0.945 0.035 0
0.955 0.035 0
0.965 0.035 0
0.975 0.035 0
0.985 0.035 0
0.995 0.035 0
1.005 0.035 0
1.015 0.035 0
1.025 0.035 0
1.035 0.035 0
1.045 0.035 0
[...]
POINT_DATA 20000
VECTORS velocity float
0.979019 -2.54214e-05 0
0.960281 -5.86966e-05 0
0.943447 -9.78792e-05 0
0.928226 -0.000143218 0
0.914376 -0.000191625 0
0.901696 -0.000245052 0
0.890027 -0.000299003 0
0.879245 -0.000357385 0
0.869255 -0.000414111 0
0.859986 -0.000475161 0
0.851387 -0.000532754 0
0.843423 -0.000594948 0
0.83607 -0.000652243 0
0.829313 -0.000714691 0
0.823144 -0.000771125 0
0.817556 -0.000833425 0
0.812549 -0.000888876 0
0.808118 -0.000950959 0
0.804264 -0.00100559 0
0.800983 -0.00106756 0
0.798275 -0.00112166 0
0.796133 -0.00118368 0
0.794555 -0.00123752 0
0.793533 -0.00129967 0
0.793061 -0.0013534 0
0.793131 -0.00141557 0
0.793734 -0.00146913 0
0.794861 -0.00153096 0
0.796503 -0.00158396 0
0.798649 -0.00164477 0
0.801288 -0.0016965 0
0.804411 -0.00175525 0
0.808005 -0.00180463 0
0.81206 -0.00185994 0
0.816565 -0.0019055 0
0.821507 -0.00195565 0
0.826875 -0.00199562 0
0.832657 -0.00203863 0
0.838839 -0.00207097 0
0.845409 -0.00210465 0
0.852353 -0.00212719 0
0.859656 -0.00214929 0
0.867304 -0.00215984 0
0.87528 -0.00216818 0
0.883568 -0.00216468 0
0.89215 -0.00215731 0
0.901009 -0.00213802 0
0.910124 -0.00211337 0
0.919476 -0.00207698 0
0.929045 -0.00203401 0
0.938808 -0.00197982 0
0.948744 -0.00191814 0
0.958828 -0.00184613 0
0.969039 -0.00176608 0
0.97935 -0.00167697 0
0.989739 -0.00157961 0
1.00018 -0.00147488 0
1.01065 -0.00136199 0
1.02112 -0.00124381 0
1.03156 -0.00111783 0
1.04196 -0.000988959 0
1.05228 -0.000852858 0
1.0625 -0.000716532 0
1.0726 -0.000573651 0
1.08255 -0.000433426 0
1.09233 -0.000287334 0
1.10191 -0.000146915 0
1.11128 -1.23429e-06 0
1.12041 0.000135687 0
1.12927 0.000277439 0
1.13786 0.00040734 0
1.14615 0.000541898 0
1.15411 0.000661567 0
1.16174 0.000786049 0
1.16902 0.0008927 0
1.17593 0.00100471 0
1.18246 0.00109608 0
1.18859 0.00119378 0
1.19432 0.00126821 0
1.19963 0.0013504 0
1.20452 0.00140685 0
1.20897 0.00147296 0
1.21299 0.00151107 0
1.21657 0.0015612 0
1.2197 0.00158125 0
1.22239 0.0016161 0
1.22463 0.001619 0
1.22644 0.00163984 0
1.22781 0.00162705 0
1.22876 0.00163567 0
1.22928 0.00160911 0
1.2294 0.00160763 0
1.22912 0.00156959 0
1.22846 0.00156044 0
1.22743 0.00151343 0
1.22606 0.00149912 0
1.22434 0.00144576 0
1.22232 0.00142878 0
1.22 0.00137163 0
1.2174 0.00135435 0
1.21455 0.00129581 0
1.21147 0.0012803 0
1.20817 0.0012225 0
1.20468 0.0012105 0
1.20102 0.00115521 0
1.19721 0.00114804 0
1.19326 0.00109667 0
1.1892 0.00109522 0
1.18504 0.00104875 0
1.1808 0.00105347 0
1.17649 0.0010125 0
1.17212 0.00102348 0
1.16771 0.000988245 0
1.16328 0.0010052 0
1.15882 0.000975643 0
1.15435 0.000998035 0
1.14987 0.000973834 0
1.1454 0.0010009 0
1.14094 0.000981549 0
1.1365 0.00101239 0
1.13207 0.000997237 0
1.12767 0.00103086 0
1.12329 0.00101917 0
1.11894 0.00105455 0
1.11461 0.00104556 0
1.11032 0.00108168 0
1.10607 0.00107457 0
1.10184 0.00111047 0
1.09765 0.00110448 0
1.0935 0.00113926 0
1.08938 0.00113362 0
1.0853 0.0011665 0
1.08126 0.00116052 0
1.07725 0.00119079 0
1.07328 0.00118383 0
1.06936 0.00121093 0
1.06547 0.0012024 0
1.06162 0.00122588 0
1.05782 0.0012153 0
1.05406 0.00123483 0
1.05034 0.00122176 0
1.04668 0.00123715 0
1.04306 0.00122126 0
1.03948 0.00123241 0
1.03596 0.00121345 0
1.03249 0.00122039 0
1.02908 0.00119817 0
1.02572 0.00120102 0
1.02242 0.00117548 0
1.01918 0.00117443 0
1.01599 0.00114557 0
1.01287 0.00114091 0
1.00981 0.0011088 0
1.00682 0.00110086 0
1.0039 0.00106566 0
1.00104 0.00105481 0
0.998245 0.00101674 0
0.995523 0.00100339 0
0.992871 0.000962728 0
0.990289 0.000947296 0
0.987778 0.000904368 0
0.985338 0.00088727 0
0.982969 0.00084244 0
0.980672 0.00082408 0
0.978445 0.000777734 0
0.976289 0.000758496 0
0.974203 0.000711036 0
0.972187 0.00069127 0
0.970239 0.000643099 0
0.968358 0.00062312 0
0.966544 0.000574635 0
0.964794 0.000554717 0
0.963108 0.000506297 0
0.961484 0.00048667 0
0.959921 0.000438672 0
0.958415 0.000419521 0
0.956966 0.000372275 0
0.955572 0.000353743 0
0.95423 0.000307548 0
0.952937 0.000289737 0
0.951693 0.000244863 0
0.950493 0.000227834 0
0.949336 0.000184523 0
0.948219 0.000168306 0
0.94714 0.000126775 0
0.946096 0.000111371 0
0.945084 7.18192e-05 0
0.9441 5.72067e-05 0
0.943145 1.98161e-05 0
0.942213 5.96708e-06 0
0.941305 -2.90838e-05 0
0.940416 -4.21791e-05 0
0.939546 -7.46721e-05 0
0.938693 -8.69414e-05 0
0.937858 -0.000116456 0
0.937041 -0.000127586 0
0.936248 -0.000152955 0
0.93549 -0.000161991 0
0.93481 -0.000179688 0
0.934314 -0.000184056 0
0.979003 -7.64262e-05 0
0.96025 -0.000175455 0
0.943405 -0.000294246 0
0.928175 -0.000428102 0
0.914317 -0.000576043 0
0.901631 -0.000732509 0
0.889958 -0.000898804 0
0.879173 -0.00106831 0
0.869181 -0.0012448 0
0.85991 -0.00142043 0
0.851311 -0.00160143 0
0.843347 -0.00177861 0
0.835993 -0.0019606 0
0.829237 -0.00213678 0
0.823068 -0.00231794 0
0.817481 -0.00249208 0
0.812472 -0.00267186 0
0.808042 -0.00284397 0
0.804187 -0.00302262 0
0.800906 -0.0031933 0
0.798196 -0.00337141 0
0.796054 -0.00354142 0
0.794474 -0.00371953 0
0.793451 -0.0038894 0
0.792978 -0.00406766 0
0.793047 -0.00423738 0
0.793649 -0.00441527 0
0.794775 -0.00458405 0
0.796416 -0.00476015 0
0.798561 -0.00492622 0
0.801201 -0.0050981 0
0.804324 -0.00525861 0
0.807919 -0.00542276 0
0.811976 -0.00557376 0
0.816483 -0.00572559 0
0.821429 -0.0058621 0
0.826802 -0.00599609 0
0.832588 -0.00611226 0
0.838777 -0.00622215 0
0.845354 -0.00631155 0
0.852306 -0.00639068 0
0.859618 -0.00644661 0
0.867275 -0.00648828 0
0.875262 -0.00650426 0
0.883561 -0.00650223 0
0.892155 -0.00647243 0
0.901026 -0.00642137 0
0.910154 -0.00634113 0
0.919519 -0.00623709 0
0.929101 -0.00610334 0
0.938877 -0.00594417 0
0.948824 -0.00575577 0
0.958921 -0.00554138 0
0.969143 -0.00529939 0
0.979465 -0.00503193 0
0.989863 -0.00473965 0
1.00031 -0.0044235 0
1.01079 -0.00408641 0
1.02126 -0.00372803 0
1.03171 -0.00335356 0
1.04211 -0.00296118 0
1.05243 -0.00255839 0
1.06265 -0.00214163 0
1.07275 -0.00172073 0
1.0827 -0.00129014 0
1.09247 -0.000862034 0
1.10205 -0.000428587 0
1.1114 -4.35699e-06 0
1.12052 0.000421061 0
1.12937 0.000830631 0
1.13794 0.00123767 0
1.14621 0.00162255 0
1.15416 0.00200183 0
1.16177 0.00235311 0
1.16903 0.00269655 0
1.17592 0.00300679 0
1.18242 0.00330791 0
1.18853 0.00357136 0
1.19424 0.00382547 0
1.19953 0.00403825 0
1.20439 0.00424258 0
1.20882 0.00440277 0
1.21281 0.00455652 0
1.21636 0.00466416 0
1.21947 0.00476846 0
1.22214 0.00482549 0
1.22436 0.00488329 0
1.22615 0.00489341 0
1.2275 0.00490924 0
1.22842 0.00487765 0
1.22893 0.00485741 0
1.22903 0.00479052 0
1.22874 0.00474108 0
1.22806 0.00464612 0
1.22702 0.00457497 0
1.22563 0.00445962 0
1.22391 0.00437441 0
1.22187 0.00424637 0
1.21954 0.00415453 0
1.21694 0.00402112 0
1.21409 0.0039295 0
1.211 0.00379734 0
1.2077 0.00371186 0
1.20421 0.00358658 0
1.20054 0.00351207 0
1.19673 0.00339817 0
1.19278 0.00333821 0
1.18872 0.00323892 0
1.18456 0.00319583 0
1.18032 0.00311319 0
1.17601 0.00308808 0
1.17165 0.00302297 0
1.16724 0.00301587 0
1.16281 0.00296818 0
1.15835 0.00297818 0
1.15389 0.00294696 0
1.14942 0.00297242 0
1.14495 0.00295608 0
1.14049 0.00299482 0
1.13605 0.00299129 0
1.13163 0.00304075 0
1.12723 0.00304765 0
1.12285 0.0031051 0
1.11851 0.00311989 0
1.11419 0.00318248 0
1.10991 0.00320257 0
1.10565 0.00326754 0
1.10143 0.00329039 0
1.09725 0.0033551 0
1.0931 0.00337828 0
1.08899 0.00344029 0
1.08491 0.00346156 0
1.08087 0.00351868 0
1.07688 0.00353601 0
1.07291 0.00358635 0
1.06899 0.00359794 0
1.06511 0.0036399 0
1.06127 0.00364425 0
1.05747 0.00367656 0
1.05372 0.00367241 0
1.05001 0.00369414 0
1.04635 0.00368053 0
1.04274 0.00369103 0
1.03917 0.00366729 0
1.03566 0.00366626 0
1.0322 0.00363198 0
1.02879 0.00361939 0
1.02544 0.00357445 0
1.02214 0.00355055 0
1.01891 0.00349505 0
1.01573 0.00346032 0
1.01262 0.00339465 0
1.00957 0.00334978 0
1.00658 0.00327449 0
1.00367 0.00322035 0
1.00081 0.0031362 0
0.998029 0.0030738 0
0.995314 0.00298168 0
0.992669 0.00291213 0
0.990094 0.00281308 0
0.987589 0.00273752 0
0.985157 0.00263264 0
0.982794 0.00255227 0
0.980503 0.00244272 0
0.978282 0.00235871 0
0.976133 0.00224566 0
0.974053 0.00215915 0
0.972042 0.00204375 0
0.970099 0.00195581 0
0.968225 0.00183918 0
0.966415 0.00175079 0
0.964671 0.00163399 0
0.96299 0.00154603 0
0.961371 0.00143002 0
0.959812 0.00134326 0
0.958311 0.00122891 0
0.956866 0.00114402 0
0.955476 0.00103209 0
0.954138 0.000949599 0
0.95285 0.000840773 0
0.951608 0.000761116 0
0.950413 0.000655962 0
0.949259 0.00057947 0
0.948146 0.000478475 0
0.947069 0.000405394 0
0.946028 0.000308973 0
0.945018 0.000239478 0
0.944039 0.000147988 0
0.943085 8.22068e-05 0
0.942157 -4.02486e-06 0
0.94125 -6.59613e-05 0
0.940364 -0.000146568 0
0.939496 -0.000204403 0
0.938646 -0.000278744 0
0.937812 -0.000331733 0
0.936999 -0.000398132 0
0.936206 -0.000443993 0
0.935452 -0.000497441 0
0.934772 -0.000529487 0
0.934278 -0.000555369 0
0.97897 -0.000127041 0
0.960189 -0.000292311 0
0.94332 -0.000489096 0
0.928072 -0.000713185 0
0.914199 -0.00095747 0
0.901502 -0.00122026 0
0.889821 -0.00149393 0
0.879029 -0.00177964 0
0.869033 -0.00206907 0
0.859759 -0.00236624 0
0.851159 -0.00266197 0
0.843193 -0.00296306 0
0.835841 -0.00325928 0
0.829084 -0.00355998 0
0.822916 -0.00385379 0
0.817328 -0.00415229 0
0.81232 -0.00444292 0
0.807889 -0.00473912 0
0.804033 -0.00502716 0
0.800751 -0.0053219 0
0.79804 -0.00560853 0
0.795895 -0.00590289 0
0.794313 -0.00618922 0
0.793287 -0.00648389 0
0.792812 -0.00677036 0
0.792877 -0.00706514 0
0.793477 -0.00735107 0
0.794601 -0.00764442 0
0.796241 -0.00792765 0
0.798385 -0.00821641 0
0.801025 -0.00849304 0
0.804149 -0.00877227 0
0.807747 -0.00903654 0
0.811807 -0.00929948 0
0.81632 -0.00954385 0
0.821272 -0.00978201 0
0.826653 -0.00999731 0
0.832451 -0.0102008 0
0.838651 -0.0103766 0
0.845243 -0.0105344 0
0.852211 -0.0106596 0
0.859541 -0.0107606 0
0.867217 -0.010824 0
0.875225 -0.010857 0
0.883547 -0.0108482 0
0.892165 -0.0108036 0
0.90106 -0.0107136 0
0.910213 -0.0105835 0
0.919604 -0.0104057 0
0.929212 -0.0101849 0
0.939013 -0.00991589 0
0.948986 -0.00960248 0
0.959106 -0.0092421 0
0.96935 -0.00883789 0
0.979693 -0.00838986 0
0.990111 -0.0079004 0
1.00058 -0.00737218 0
1.01107 -0.00680669 0
1.02155 -0.00620922 0
1.03201 -0.00558019 0
1.04241 -0.00492741 0
1.05274 -0.00424996 0
1.06296 -0.00355816 0
1.07305 -0.00284936 0
1.08298 -0.00213633 0
1.09274 -0.00141435 0
1.1023 -0.000698584 0
1.11164 1.8138e-05 0
1.12073 0.00071829 0
1.12956 0.00141189 0
1.1381 0.002079 0
1.14633 0.00273291 0
1.15425 0.00335118 0
1.16182 0.00395075 0
1.16904 0.00450659 0
1.17588 0.00503968 0
1.18234 0.00552216 0
1.18841 0.00597945 0
1.19407 0.00638068 0
1.19931 0.006756 0
1.20412 0.00707129 0
1.20851 0.00736174 0
1.21245 0.00758969 0
1.21596 0.00779564 0
1.21902 0.0079381 0
1.22164 0.00806303 0
1.22382 0.00812488 0
1.22556 0.00817517 0
1.22687 0.00816397 0
1.22776 0.00814843 0
1.22823 0.00807401 0
1.2283 0.00800339 0
1.22797 0.00787722 0
1.22726 0.00776358 0
1.22619 0.00759817 0
1.22478 0.00745422 0
1.22303 0.00726241 0
1.22098 0.00710079 0
1.21863 0.00689508 0
1.21602 0.00672773 0
1.21315 0.00651969 0
1.21005 0.00635731 0
1.20674 0.00615704 0
1.20325 0.00600863 0
1.19958 0.00582442 0
1.19577 0.00569703 0
1.19182 0.00553518 0
1.18776 0.00543375 0
1.1836 0.00529848 0
1.17936 0.00522592 0
1.17505 0.00511949 0
1.1707 0.00507679 0
1.1663 0.00499967 0
1.16187 0.00498615 0
1.15742 0.0049373 0
1.15296 0.00495093 0
1.1485 0.00492806 0
1.14404 0.00496573 0
1.13959 0.00496567 0
1.13516 0.00502351 0
1.13074 0.00504244 0
1.12635 0.00511612 0
1.12199 0.00514983 0
1.11765 0.00523479 0
1.11334 0.00527892 0
1.10907 0.00537058 0
1.10482 0.0054208 0
1.10061 0.0055147 0
1.09644 0.00556682 0
1.0923 0.00565879 0
1.0882 0.00570891 0
1.08414 0.00579512 0
1.08011 0.00583966 0
1.07612 0.00591673 0
1.07217 0.00595253 0
1.06826 0.00601755 0
1.0644 0.00604189 0
1.06057 0.00609244 0
1.05678 0.00610306 0
1.05304 0.00613728 0
1.04935 0.0061324 0
1.0457 0.00614893 0
1.0421 0.00612725 0
1.03855 0.00612523 0
1.03505 0.00608595 0
1.0316 0.00606504 0
1.02821 0.00600778 0
1.02487 0.00596809 0
1.02159 0.00589294 0
1.01837 0.00583499 0
1.01521 0.00574245 0
1.01211 0.00566716 0
1.00908 0.00555807 0
1.00611 0.00546668 0
1.0032 0.0053422 0
1.00037 0.00523621 0
0.997597 0.00509781 0
0.994896 0.00497892 0
0.992265 0.00482824 0
0.989703 0.00469831 0
0.987213 0.00453715 0
0.984792 0.00439812 0
0.982444 0.0042284 0
0.980165 0.00408222 0
0.977958 0.00390587 0
0.97582 0.00375448 0
0.973753 0.00357343 0
0.971752 0.00341868 0
0.969822 0.00323481 0
0.967957 0.00307843 0
0.96616 0.00289351 0
0.964425 0.0027371 0
0.962755 0.00255276 0
0.961144 0.00239774 0
0.959595 0.00221546 0
0.958102 0.00206306 0
0.956668 0.00188415 0
0.955284 0.00173543 0
0.953955 0.00156103 0
0.952673 0.00141685 0
0.951441 0.00124792 0
0.950251 0.00110898 0
0.949105 0.000946335 0
0.947997 0.000813179 0
0.946928 0.000657494 0
0.945892 0.000530532 0
0.944889 0.000382378 0
0.943914 0.000261924 0
0.942967 0.000121791 0
0.942042 8.11421e-06 0
0.941142 -0.000123514 0
0.940259 -0.000230068 0
0.939398 -0.000352501 0
0.938551 -0.000451151 0
0.937724 -0.000562809 0
0.936911 -0.000651258 0
0.936125 -0.000747543 0
0.935373 -0.000818892 0
0.934698 -0.000886108 0
0.934206 -0.000920641 0
0.97892 -0.000177587 0
0.960098 -0.000408 0
0.943194 -0.000683629 0
0.927918 -0.00099538 0
0.914022 -0.00133821 0
0.901308 -0.00170303 0
0.889613 -0.00208793 0
0.878814 -0.00248372 0
0.86881 -0.00289177 0
0.859534 -0.00330254 0
0.85093 -0.00372062 0
0.842965 -0.00413589 0
0.835611 -0.00455591 0
0.828856 -0.00496977 0
0.822686 -0.00538767 0
0.8171 -0.00579773 0
0.812091 -0.00621237 0
0.80766 -0.00661868 0
0.803802 -0.00703076 0
0.800518 -0.00743466 0
0.797803 -0.00784571 0
0.795656 -0.00824892 0
0.79407 -0.00866032 0
0.793041 -0.00906398 0
0.79256 -0.00947619 0
0.792622 -0.0098802 0
0.793218 -0.0102921 0
0.794339 -0.0106944 0
0.795976 -0.0111028 0
0.798119 -0.0114992 0
0.800759 -0.0118983 0
0.803884 -0.012282 0
0.807485 -0.0126635 0
0.811552 -0.013025 0
0.816072 -0.0133783 0
0.821035 -0.0137057 0
0.826429 -0.0140176 0
0.832241 -0.0142969 0
0.838461 -0.0145526 0
0.845073 -0.0147685 0
0.852065 -0.0149522 0
0.859422 -0.0150886 0
0.867128 -0.0151844 0
0.875167 -0.0152259 0
0.883523 -0.0152189 0
0.892176 -0.0151517 0
0.901108 -0.0150293 0
0.9103 -0.0148423 0
0.919729 -0.0145952 0
0.929375 -0.0142811 0
0.939215 -0.0139043 0
0.949224 -0.0134607 0
0.959381 -0.0129541 0
0.969658 -0.0123835 0
0.980033 -0.0117525 0
0.990478 -0.0110631 0
1.00097 -0.0103183 0
1.01148 -0.00952325 0
1.02198 -0.00868028 0
1.03245 -0.00779734 0
1.04286 -0.00687592 0
1.05319 -0.0059267 0
1.0634 -0.00494984 0
1.07348 -0.0039586 0
1.08341 -0.00295138 0
1.09315 -0.0019439 0
1.10268 -0.000932301 0
1.11198 6.53313e-05 0
1.12104 0.00105561 0
1.12982 0.00201815 0
1.13832 0.0029628 0
1.14651 0.00386689 0
1.15437 0.00474397 0
1.16188 0.00556903 0
1.16904 0.00635977 0
1.17582 0.00708873 0
1.18222 0.00777817 0
1.18821 0.00839802 0
1.1938 0.00897548 0
1.19897 0.00947765 0
1.20371 0.00993697 0
1.20802 0.0103175 0
1.2119 0.0106571 0
1.21533 0.0109166 0
1.21832 0.0111395 0
1.22087 0.0112829 0
1.22299 0.0113963 0
1.22466 0.0114327 0
1.22592 0.0114474 0
1.22674 0.0113892 0
1.22716 0.0113191 0
1.22717 0.0111814 0
1.2268 0.0110427 0
1.22605 0.0108424 0
1.22494 0.0106525 0
1.22349 0.0104074 0
1.22171 0.0101842 0
1.21963 0.00991207 0
1.21726 0.00967267 0
1.21462 0.00939034 0
1.21174 0.00915063 0
1.20862 0.00887311 0
1.20531 0.00864682 0
1.2018 0.00838684 0
1.19813 0.00818513 0
1.19431 0.00795272 0
1.19036 0.00778391 0
1.1863 0.00758625 0
1.18215 0.00745576 0
1.17791 0.00729719 0
1.17361 0.00720771 0
1.16926 0.00708997 0
1.16487 0.00704168 0
1.16045 0.00696421 0
1.15601 0.00695522 0
1.15156 0.00691556 0
1.14711 0.00694228 0
1.14267 0.00693651 0
1.13823 0.0069941 0
1.13381 0.00701722 0
1.12941 0.00709999 0
1.12503 0.00714633 0
1.12068 0.00724811 0
1.11636 0.00731164 0
1.11206 0.0074261 0
1.1078 0.0075007 0
1.10358 0.00762157 0
1.09938 0.00770128 0
1.09522 0.00782257 0
1.0911 0.00790172 0
1.08702 0.00801789 0
1.08297 0.00809126 0
1.07896 0.00819729 0
1.07499 0.0082602 0
1.07106 0.00835171 0
1.06717 0.00840006 0
1.06332 0.00847335 0
1.05951 0.00850369 0
1.05575 0.00855575 0
1.05203 0.00856531 0
1.04835 0.00859388 0
1.04473 0.00858056 0
1.04115 0.00858405 0
1.03762 0.00854643 0
1.03414 0.00852399 0
1.03071 0.0084613 0
1.02734 0.00841273 0
1.02403 0.00832484 0
1.02077 0.00825054 0
1.01757 0.0081379 0
1.01443 0.00803884 0
1.01136 0.00790245 0
1.00834 0.00778011 0
1.0054 0.00762142 0
1.00251 0.00747768 0
0.999698 0.00729858 0
0.996948 0.00713564 0
0.99427 0.00693832 0
0.991658 0.00675866 0
0.989119 0.00654557 0
0.986648 0.00635183 0
0.984249 0.00612557 0
0.981918 0.00592046 0
0.979661 0.00568374 0
0.97747 0.00546997 0
0.975352 0.0052255 0
0.973301 0.00500572 0
0.971321 0.00475614 0
0.969405 0.00453289 0
0.967559 0.00428073 0
0.965775 0.00405634 0
0.964058 0.00380394 0
0.9624 0.00358054 0
0.960807 0.00333006 0
0.959269 0.00310953 0
0.957792 0.00286288 0
0.956368 0.00264685 0
0.955 0.00240569 0
0.95368 0.00219554 0
0.952412 0.0019613 0
0.951188 0.00175813 0
0.950011 0.00153201 0
0.948873 0.00133673 0
0.947777 0.00111972 0
0.946715 0.000933023 0
0.94569 0.000725948 0
0.944694 0.000548378 0
0.943729 0.000351921 0
0.942788 0.000183911 0
0.941874 -1.30777e-06 0
0.940978 -0.000159326 0
0.940106 -0.000332591 0
0.939248 -0.000479894 0
0.938411 -0.000639865 0
0.937587 -0.000774557 0
0.936785 -0.000917594 0
0.936001 -0.00103398 0
0.935258 -0.00114919 0
0.934585 -0.00123048 0
0.934099 -0.00128625 0
0.978854 -0.000227515 0
0.959976 -0.000523235 0
0.943027 -0.000875739 0
0.927712 -0.00127639 0
0.913788 -0.00171414 0
0.90105 -0.00218368 0
0.889339 -0.0026744 0
0.878526 -0.00318466 0
0.868515 -0.00370411 0
0.859232 -0.00423476 0
0.850627 -0.0047662 0
0.842659 -0.00530389 0
0.835307 -0.00583709 0
0.82855 -0.00637431 0
0.822382 -0.0069042 0
0.816794 -0.00743788 0
0.811786 -0.00796321 0
0.807352 -0.00849335 0
0.803494 -0.00901521 0
0.800205 -0.00954347 0
0.797488 -0.010064 0
0.795335 -0.0105925 0
0.793745 -0.0111137 0
0.792709 -0.0116436 0
0.792223 -0.0121662 0
0.792279 -0.0126974 0
0.79287 -0.0132202 0
0.793986 -0.0137498 0
0.79562 -0.0142686 0
0.797761 -0.014791 0
0.8004 -0.0152986 0
0.803527 -0.0158047 0
0.807133 -0.0162906 0
0.811206 -0.0167679 0
0.815737 -0.0172181 0
0.820713 -0.0176511 0
0.826124 -0.0180485 0
0.831958 -0.0184188 0
0.838201 -0.0187443 0
0.844842 -0.0190318 0
0.851866 -0.0192646 0
0.859259 -0.0194484 0
0.867004 -0.0195679 0
0.875086 -0.0196277 0
0.883486 -0.0196144 0
0.892187 -0.0195322 0
0.901168 -0.0193697 0
0.910411 -0.019131 0
0.919891 -0.0188074 0
0.929589 -0.0184027 0
0.939479 -0.0179115 0
0.949539 -0.0173378 0
0.959742 -0.0166792 0
0.970065 -0.0159399 0
0.98048 -0.0151212 0
0.990963 -0.0142271 0
1.00149 -0.0132623 0
1.01202 -0.0122309 0
1.02255 -0.0111406 0
1.03303 -0.00999515 0
1.04345 -0.00880539 0
1.05378 -0.00757413 0
1.06399 -0.00631505 0
1.07405 -0.00502955 0
1.08396 -0.00373395 0
1.09367 -0.00242765 0
1.10317 -0.00112937 0
1.11243 0.000164017 0
1.12143 0.00143157 0
1.13017 0.00267957 0
1.1386 0.00388494 0
1.14672 0.00505764 0
1.1545 0.0061725 0
1.16194 0.00724371 0
1.16901 0.00824395 0
1.17571 0.00919212 0
1.18201 0.0100586 0
1.18792 0.0108675 0
1.19341 0.0115868 0
1.19849 0.0122459 0
1.20313 0.0128103 0
1.20735 0.0133151 0
1.21113 0.0137229 0
1.21447 0.0140748 0
1.21736 0.0143301 0
1.21983 0.0145361 0
1.22185 0.0146483 0
1.22345 0.0147204 0
1.22461 0.0147038 0
1.22536 0.0146581 0
1.2257 0.0145308 0
1.22565 0.014387 0
1.22521 0.0141697 0
1.22441 0.0139497 0
1.22324 0.0136649 0
1.22175 0.0133913 0
1.21992 0.0130619 0
1.21781 0.0127573 0
1.2154 0.0124053 0
1.21274 0.0120909 0
1.20983 0.0117368 0
1.2067 0.0114314 0
1.20337 0.0110927 0
1.19985 0.0108121 0
1.19617 0.0105033 0
1.19235 0.0102599 0
1.1884 0.00999163 0
1.18435 0.00979407 0
1.18019 0.00957359 0
1.17597 0.00942693 0
1.17168 0.00925789 0
1.16734 0.00916386 0
1.16296 0.00904683 0
1.15855 0.00900425 0
1.15412 0.00893714 0
1.14969 0.00894246 0
1.14526 0.00892105 0
1.14083 0.00896885 0