# vtk DataFile Version 3.0
Flow field at step 500
ASCII
DATASET STRUCTURED_GRID
DIMENSIONS 200 100 1
POINTS 20000 float
0.005 0.005 0
0.015 0.005 0
0.025 0.005 0
0.035 0.005 0
0.045 0.005 0
0.055 0.005 0
0.065 0.005 0
0.075 0.005 0
0.085 0.005 0
0.095 0.005 0
0.105 0.005 0
0.115 0.005 0
0.125 0.005 0
0.135 0.005 0
0.145 0.005 0
0.155 0.005 0
0.165 0.005 0
0.175 0.005 0
0.185 0.005 0
0.195 0.005 0
0.205 0.005 0
0.215 0.005 0
0.225 0.005 0
0.235 0.005 0
0.245 0.005 0
0.255 0.005 0
0.265 0.005 0
0.275 0.005 0
0.285 0.005 0
0.295 0.005 0
0.305 0.005 0
0.315 0.005 0
0.325 0.005 0
0.335 0.005 0
0.345 0.005 0
0.355 0.005 0
0.365 0.005 0
0.375 0.005 0
0.385 0.005 0
0.395 0.005 0
0.405 0.005 0
0.415 0.005 0
0.425 0.005 0
0.435 0.005 0
0.445 0.005 0
0.455 0.005 0
0.465 0.005 0
0.475 0.005 0
0.485 0.005 0
0.495 0.005 0
0.505 0.005 0
0.515 0.005 0
0.525 0.005 0
0.535 0.005 0
0.545 0.005 0
0.555 0.005 0
0.565 0.005 0
0.575 0.005 0
0.585 0.005 0
0.595 0.005 0
0.605 0.005 0
0.615 0.005 0
0.625 0.005 0
0.635 0.005 0
0.645 0.005 0
0.655 0.005 0
0.665 0.005 0
0.675 0.005 0
0.685 0.005 0
0.695 0.005 0
0.705 0.005 0
0.715 0.005 0
0.725 0.005 0
0.735 0.005 0
0.745 0.005 0
0.755 0.005 0
0.765 0.005 0
0.775 0.005 0
0.785 0.005 0
0.795 0.005 0
0.805 0.005 0
0.815 0.005 0
0.825 0.005 0
0.835 0.005 0
0.845 0.005 0
0.855 0.005 0
0.865 0.005 0
0.875 0.005 0
0.885 0.005 0
0.895 0.005 0
0.905 0.005 0
0.915 0.005 0
0.925 0.005 0
0.935 0.005 0
0.945 0.005 0
0.955 0.005 0
0.965 0.005 0
0.975 0.005 0
0.985 0.005 0
0.995 0.005 0
1.005 0.005 0
1.015 0.005 0
1.025 0.005 0
1.035 0.005 0
1.045 0.005 0
1.055 0.005 0
1.065 0.005 0
1.075 0.005 0
1.085 0.005 0
1.095 0.005 0
1.105 0.005 0
1.115 0.005 0
1.125 0.005 0
1.135 0.005 0
1.145 0.005 0
1.155 0.005 0
1.165 0.005 0
1.175 0.005 0
1.185 0.005 0
1.195 0.005 0
1.205 0.005 0
1.215 0.005 0
1.225 0.005 0
1.235 0.005 0
1.245 0.005 0
1.255 0.005 0
1.265 0.005 0
1.275 0.005 0
1.285 0.005 0
1.295 0.005 0
1.305 0.005 0
1.315 0.005 0
1.325 0.005 0
1.335 0.005 0
1.345 0.005 0
1.355 0.005 0
1.365 0.005 0
1.375 0.005 0
1.385 0.005 0
1.395 0.005 0
1.405 0.005 0
1.415 0.005 0
1.425 0.005 0
1.435 0.005 0
1.445 0.005 0
1.455 0.005 0
1.465 0.005 0
1.475 0.005 0
1.485 0.005 0
1.495 0.005 0
1.505 0.005 0
1.515 0.005 0
1.525 0.005 0
1.535 0.005 0
1.545 0.005 0
1.555 0.005 0
1.565 0.005 0
1.575 0.005 0
1.585 0.005 0
1.595 0.005 0
1.605 0.005 0
1.615 0.005 0
1.625 0.005 0
1.635 0.005 0
1.645 0.005 0
1.655 0.005 0
1.665 0.005 0
1.675 0.005 0
1.685 0.005 0
1.695 0.005 0
1.705 0.005 0
1.715 0.005 0
1.725 0.005 0
1.735 0.005 0
1.745 0.005 0
1.755 0.005 0
1.765 0.005 0
1.775 0.005 0
1.785 0.005 0
1.795 0.005 0
1.805 0.005 0
1.815 0.005 0
1.825 0.005 0
1.835 0.005 0
1.845 0.005 0
1.855 0.005 0
1.865 0.005 0
1.875 0.005 0
1.885 0.005 0
1.895 0.005 0
1.905 0.005 0
1.915 0.005 0
1.925 0.005 0
1.935 0.005 0
1.945 0.005 0
1.955 0.005 0
1.965 0.005 0
1.975 0.005 0
1.985 0.005 0
1.995 0.005 0
0.005 0.015 0
0.015 0.015 0
0.025 0.015 0
0.035 0.015 0
0.045 0.015 0
0.055 0.015 0
0.065 0.015 0
0.075 0.015 0
0.085 0.015 0
0.095 0.015 0
0.105 0.015 0
0.115 0.015 0
0.125 0.015 0
0.135 0.015 0
0.145 0.015 0
0.155 0.015 0
0.165 0.015 0
0.175 0.015 0
0.185 0.015 0
0.195 0.015 0
0.205 0.015 0
0.215 0.015 0
0.225 0.015 0
0.235 0.015 0
0.245 0.015 0
0.255 0.015 0
0.265 0.015 0
0.275 0.015 0
0.285 0.015 0
0.295 0.015 0
0.305 0.015 0
0.315 0.015 0
0.325 0.015 0
0.335 0.015 0
0.345 0.015 0
0.355 0.015 0
0.365 0.015 0
0.375 0.015 0
0.385 0.015 0
0.395 0.015 0
0.405 0.015 0
0.415 0.015 0
0.425 0.015 0
0.435 0.015 0
0.445 0.015 0
0.455 0.015 0
0.465 0.015 0
0.475 0.015 0
0.485 0.015 0
0.495 0.015 0
0.505 0.015 0
0.515 0.015 0
0.525 0.015 0
0.535 0.015 0
0.545 0.015 0
0.555 0.015 0
0.565 0.015 0
0.575 0.015 0
0.585 0.015 0
0.595 0.015 0
0.605 0.015 0
0.615 0.015 0
0.625 0.015 0
0.635 0.015 0
0.645 0.015 0
0.655 0.015 0
0.665 0.015 0
0.675 0.015 0
0.685 0.015 0
0.695 0.015 0
0.705 0.015 0
0.715 0.015 0
0.725 0.015 0
0.735 0.015 0
0.745 0.015 0
0.755 0.015 0
0.765 0.015 0
0.775 0.015 0
0.785 0.015 0
0.795 0.015 0
0.805 0.015 0
0.815 0.015 0
0.825 0.015 0
0.835 0.015 0
0.845 0.015 0
0.855 0.015 0
0.865 0.015 0
0.875 0.015 0
0.885 0.015 0
0.895 0.015 0
0.905 0.015 0
0.915 0.015 0
0.925 0.015 0
0.935 0.015 0
0.945 0.015 0
0.955 0.015 0
0.965 0.015 0
0.975 0.015 0
0.985 0.015 0
0.995 0.015 0
1.005 0.015 0
1.015 0.015 0
1.025 0.015 0
1.035 0.015 0
1.045 0.015 0
1.055 0.015 0
1.065 0.015 0
1.075 0.015 0
1.085 0.015 0
1.095 0.015 0
1.105 0.015 0
1.115 0.015 0
1.125 0.015 0
1.135 0.015 0
1.145 0.015 0
1.155 0.015 0
1.165 0.015 0
1.175 0.015 0
1.185 0.015 0
1.195 0.015 0
1.205 0.015 0
1.215 0.015 0
1.225 0.015 0
1.235 0.015 0
1.245 0.015 0
1.255 0.015 0
1.265 0.015 0
1.275 0.015 0
1.285 0.015 0
1.295 0.015 0
1.305 0.015 0
1.315 0.015 0
1.325 0.015 0
1.335 0.015 0
1.345 0.015 0
1.355 0.015 0
1.365 0.015 0
1.375 0.015 0
1.385 0.015 0
1.395 0.015 0
1.405 0.015 0
1.415 0.015 0
1.425 0.015 0
1.435 0.015 0
1.445 0.015 0
1.455 0.015 0
1.465 0.015 0
1.475 0.015 0
1.485 0.015 0
1.495 0.015 0
1.505 0.015 0
1.515 0.015 0
1.525 0.015 0
1.535 0.015 0
1.545 0.015 0
1.555 0.015 0
1.565 0.015 0
1.575 0.015 0
1.585 0.015 0
1.595 0.015 0
1.605 0.015 0
1.615 0.015 0
1.625 0.015 0
1.635 0.015 0
1.645 0.015 0
1.655 0.015 0
1.665 0.015 0
1.675 0.015 0
1.685 0.015 0
1.695 0.015 0
1.705 0.015 0
1.715 0.015 0
1.725 0.015 0
1.735 0.015 0
1.745 0.015 0
1.755 0.015 0
1.765 0.015 0
1.775 0.015 0
1.785 0.015 0
1.795 0.015 0
1.805 0.015 0
1.815 0.015 0
1.825 0.015 0
1.835 0.015 0
1.845 0.015 0
1.855 0.015 0
1.865 0.015 0
1.875 0.015 0
1.885 0.015 0
1.895 0.015 0
1.905 0.015 0
1.915 0.015 0
1.925 0.015 0
1.935 0.015 0
1.945 0.015 0
1.955 0.015 0
1.965 0.015 0
1.975 0.015 0
1.985 0.015 0
1.995 0.015 0
0.005 0.025 0
0.015 0.025 0
0.025 0.025 0
0.035 0.025 0
0.045 0.025 0
0.055 0.025 0
0.065 0.025 0
0.075 0.025 0
0.085 0.025 0
0.095 0.025 0
0.105 0.025 0
0.115 0.025 0
0.125 0.025 0
0.135 0.025 0
0.145 0.025 0
0.155 0.025 0
0.165 0.025 0
0.175 0.025 0
0.185 0.025 0
0.195 0.025 0
0.205 0.025 0
0.215 0.025 0
0.225 0.025 0
0.235 0.025 0
0.245 0.025 0
0.255 0.025 0
0.265 0.025 0
0.275 0.025 0
0.285 0.025 0
0.295 0.025 0
0.305 0.025 0
0.315 0.025 0
0.325 0.025 0
0.335 0.025 0
0.345 0.025 0
0.355 0.025 0
0.365 0.025 0
0.375 0.025 0
0.385 0.025 0
0.395 0.025 0
0.405 0.025 0
0.415 0.025 0
0.425 0.025 0
0.435 0.025 0
0.445 0.025 0
0.455 0.025 0
0.465 0.025 0
0.475 0.025 0
0.485 0.025 0
0.495 0.025 0
0.505 0.025 0
0.515 0.025 0
0.525 0.025 0
0.535 0.025 0
0.545 0.025 0
0.555 0.025 0
0.565 0.025 0
0.575 0.025 0
0.585 0.025 0
0.595 0.025 0
0.605 0.025 0
0.615 0.025 0
0.625 0.025 0
0.635 0.025 0
0.645 0.025 0
0.655 0.025 0
0.665 0.025 0
0.675 0.025 0
0.685 0.025 0
0.695 0.025 0
0.705 0.025 0
0.715 0.025 0
0.725 0.025 0
0.735 0.025 0
0.745 0.025 0
0.755 0.025 0
0.765 0.025 0
0.775 0.025 0
0.785 0.025 0
0.795 0.025 0
0.805 0.025 0
0.815 0.025 0
0.825 0.025 0
0.835 0.025 0
0.845 0.025 0
0.855 0.025 0
0.865 0.025 0
0.875 0.025 0
0.885 0.025 0
0.895 0.025 0
0.905 0.025 0
0.915 0.025 0
0.925 0.025 0
0.935 0.025 0
0.945 0.025 0
0.955 0.025 0
0.965 0.025 0
0.975 0.025 0
0.985 0.025 0
0.995 0.025 0
1.005 0.025 0
1.015 0.025 0
1.025 0.025 0
1.035 0.025 0
1.045 0.025 0
1.055 0.025 0
1.065 0.025 0
1.075 0.025 0
1.085 0.025 0
1.095 0.025 0
1.105 0.025 0
1.115 0.025 0
1.125 0.025 0
1.135 0.025 0
1.145 0.025 0
1.155 0.025 0
1.165 0.025 0
1.175 0.025 0
1.185 0.025 0
1.195 0.025 0
1.205 0.025 0
1.215 0.025 0
1.225 0.025 0
1.235 0.025 0
1.245 0.025 0
1.255 0.025 0
1.265 0.025 0
1.275 0.025 0
1.285 0.025 0
1.295 0.025 0
1.305 0.025 0
1.315 0.025 0
1.325 0.025 0
1.335 0.025 0
1.345 0.025 0
1.355 0.025 0
1.365 0.025 0
1.375 0.025 0
1.385 0.025 0
1.395 0.025 0
1.405 0.025 0
1.415 0.025 0
1.425 0.025 0
1.435 0.025 0
1.445 0.025 0
1.455 0.025 0
1.465 0.025 0
1.475 0.025 0
1.485 0.025 0
1.495 0.025 0
1.505 0.025 0
1.515 0.025 0
1.525 0.025 0
1.535 0.025 0
1.545 0.025 0
1.555 0.025 0
1.565 0.025 0
1.575 0.025 0
1.585 0.025 0
1.595 0.025 0
1.605 0.025 0
1.615 0.025 0
1.625 0.025 0
1.635 0.025 0
1.645 0.025 0
1.655 0.025 0
1.665 0.025 0
1.675 0.025 0
1.685 0.025 0
1.695 0.025 0
1.705 0.025 0
1.715 0.025 0
1.725 0.025 0
1.735 0.025 0
1.745 0.025 0
1.755 0.025 0
1.765 0.025 0
1.775 0.025 0
1.785 0.025 0
1.795 0.025 0
1.805 0.025 0
1.815 0.025 0
1.825 0.025 0
1.835 0.025 0
1.845 0.025 0
1.855 0.025 0
1.865 0.025 0
1.875 0.025 0
1.885 0.025 0
1.895 0.025 0
1.905 0.025 0
1.915 0.025 0
1.925 0.025 0
1.935 0.025 0
1.945 0.025 0
1.955 0.025 0
1.965 0.025 0
1.975 0.025 0
1.985 0.025 0
1.995 0.025 0
0.005 0.035 0
0.015 0.035 0
0.025 0.035 0
0.035 0.035 0
0.045 0.035 0
0.055 0.035 0
0.065 0.035 0
0.075 0.035 0
0.085 0.035 0
0.095 0.035 0
0.105 0.035 0
0.115 0.035 0
0.125 0.035 0
0.135 0.035 0
0.145 0.035 0
0.155 0.035 0
0.165 0.035 0
0.175 0.035 0
0.185 0.035 0
0.195 0.035 0
0.205 0.035 0
0.215 0.035 0
0.225 0.035 0
0.235 0.035 0
0.245 0.035 0
0.255 0.035 0
0.265 0.035 0
0.275 0.035 0
0.285 0.035 0
0.295 0.035 0
0.305 0.035 0
0.315 0.035 0
0.325 0.035 0
0.335 0.035 0
0.345 0.035 0
0.355 0.035 0
0.365 0.035 0
0.375 0.035 0
0.385 0.035 0
0.395 0.035 0
0.405 0.035 0
0.415 0.035 0
0.425 0.035 0
0.435 0.035 0
0.445 0.035 0
0.455 0.035 0
0.465 0.035 0
0.475 0.035 0
0.485 0.035 0
0.495 0.035 0
0.505 0.035 0
0.515 0.035 0
0.525 0.035 0
0.535 0.035 0
0.545 0.035 0
0.555 0.035 0
0.565 0.035 0
0.575 0.035 0
0.585 0.035 0
0.595 0.035 0
0.605 0.035 0
0.615 0.035 0
0.625 0.035 0
0.635 0.035 0
0.645 0.035 0
0.655 0.035 0
0.665 0.035 0
0.675 0.035 0
0.685 0.035 0
0.695 0.035 0
0.705 0.035 0
0.715 0.035 0
0.725 0.035 0
0.735 0.035 0
0.745 0.035 0
0.755 0.035 0
0.765 0.035 0
0.775 0.035 0
0.785 0.035 0
0.795 0.035 0
0.805 0.035 0
0.815 0.035 0
0.825 0.035 0
0.835 0.035 0
0.845 0.035 0
0.855 0.035 0
0.865 0.035 0
0.875 0.035 0
0.885 0.035 0
0.895 0.035 0
0.905 0.035 0
0.915 0.035 0
0.925 0.035 0
0.935 0.035 0
0.945 0.035 0
0.955 0.035 0
0.965 0.035 0
0.975 0.035 0
0.985 0.035 0
0.995 0.035 0
1.005 0.035 0
1.015 0.035 0
1.025 0.035 0
1.035 0.035 0
1.045 0.035 0
[...]
POINT_DATA 20000
VECTORS velocity float
0.998217 -1.57004e-05 0
0.996529 -3.62661e-05 0
0.994871 -6.29046e-05 0
0.993191 -9.27697e-05 0
0.991445 -0.000130107 0
0.989594 -0.000169076 0
0.987606 -0.000217762 0
0.985454 -0.000266421 0
0.983112 -0.000327623 0
0.980563 -0.00038698 0
0.977788 -0.00046203 0
0.974776 -0.000533179 0
0.971519 -0.000623225 0
0.968013 -0.000707012 0
0.96426 -0.000812671 0
0.960268 -0.000909382 0
0.956047 -0.00103041 0
0.95162 -0.0011395 0
0.947008 -0.00127456 0
0.942246 -0.00139446 0
0.937368 -0.00154097 0
0.932418 -0.00166906 0
0.927444 -0.00182325 0
0.922497 -0.00195594 0
0.917631 -0.00211308 0
0.912903 -0.00224609 0
0.908371 -0.00240081 0
0.90409 -0.00252952 0
0.900116 -0.00267632 0
0.896501 -0.00279616 0
0.893296 -0.00292979 0
0.890543 -0.00303654 0
0.888283 -0.00315235 0
0.886547 -0.00324241 0
0.885366 -0.00333657 0
0.884759 -0.00340702 0
0.884743 -0.00347657 0
0.885326 -0.0035252 0
0.886513 -0.003568 0
0.888302 -0.00359322 0
0.890687 -0.0036079 0
0.893655 -0.00360864 0
0.897192 -0.00359443 0
0.901277 -0.0035701 0
0.90589 -0.00352679 0
0.911003 -0.00347718 0
0.91659 -0.00340504 0
0.922618 -0.00333039 0
0.929058 -0.00323019 0
0.935874 -0.00313117 0
0.943033 -0.00300416 0
0.950498 -0.00288194 0
0.958233 -0.0027299 0
0.966202 -0.0025862 0
0.974367 -0.00241142 0
0.98269 -0.0022485 0
0.991136 -0.0020538 0
0.999666 -0.00187443 0
1.00824 -0.0016631 0
1.01684 -0.00147055 0
1.0254 -0.00124622 0
1.03391 -0.00104411 0
1.04233 -0.000810695 0
1.05063 -0.000602915 0
1.05877 -0.000364445 0
1.06673 -0.000154991 0
1.07447 8.45234e-05 0
1.08197 0.000291684 0
1.08919 0.000528395 0
1.09613 0.000729459 0
1.10275 0.000959812 0
1.10903 0.00115126 0
1.11495 0.0013721 0
1.12049 0.00155082 0
1.12564 0.00175947 0
1.13039 0.00192278 0
1.13471 0.00211712 0
1.1386 0.00226288 0
1.14205 0.00244134 0
1.14506 0.00256794 0
1.14762 0.00272952 0
1.14972 0.00283589 0
1.15137 0.00298015 0
1.15257 0.00306573 0
1.15333 0.0031927 0
1.15365 0.00325741 0
1.15353 0.00336755 0
1.15299 0.00341173 0
1.15204 0.00350582 0
1.15069 0.00353016 0
1.14896 0.00360925 0
1.14686 0.00361471 0
1.14442 0.00367999 0
1.14164 0.00366778 0
1.13855 0.0037205 0
1.13517 0.00369193 0
1.13151 0.00373336 0
1.12761 0.00368986 0
1.12348 0.0037212 0
1.11914 0.00366423 0
1.11461 0.00368659 0
1.10992 0.00361763 0
1.10508 0.00363201 0
1.10011 0.00355252 0
1.09504 0.00355983 0
1.08988 0.00347126 0
1.08465 0.00347231 0
1.07937 0.00337608 0
1.07405 0.00337162 0
1.0687 0.00326913 0
1.06335 0.00325986 0
1.05801 0.00315249 0
1.05269 0.00313913 0
1.0474 0.00302821 0
1.04215 0.00301145 0
1.03696 0.00289829 0
1.03183 0.00287887 0
1.02677 0.00276472 0
1.0218 0.00274337 0
1.01691 0.00262941 0
1.01211 0.00260689 0
1.00742 0.00249422 0
1.00283 0.00247127 0
0.998354 0.00236089 0
0.993995 0.0023382 0
0.989758 0.002231 0
0.985647 0.00220922 0
0.981665 0.00210594 0
0.977817 0.0020856 0
0.974107 0.00198688 0
0.970536 0.0019684 0
0.96711 0.00187469 0
0.963829 0.00185835 0
0.960699 0.00176999 0
0.95772 0.00175591 0
0.954898 0.0016731 0
0.952232 0.00166123 0
0.949727 0.00158405 0
0.947384 0.00157419 0
0.945207 0.00150259 0
0.943195 0.00149439 0
0.941352 0.00142825 0
0.939679 0.00142124 0
0.938177 0.00136036 0
0.936847 0.00135395 0
0.935689 0.00129807 0
0.934703 0.00129164 0
0.93389 0.00124047 0
0.933248 0.00123334 0
0.932776 0.00118658 0
0.932471 0.0011781 0
0.932333 0.00113542 0
0.932357 0.00112498 0
0.932541 0.00108608 0
0.932879 0.00107314 0
0.933369 0.00103773 0
0.934004 0.00102185 0
0.934779 0.000989648 0
0.935688 0.000970527 0
0.936724 0.000941268 0
0.93788 0.000918737 0
0.93915 0.000892177 0
0.940523 0.000866209 0
0.941995 0.00084212 0
0.943553 0.000812832 0
0.945193 0.000791002 0
0.946902 0.000758644 0
0.948675 0.000738871 0
0.9505 0.000703816 0
0.95237 0.000685914 0
0.954275 0.000648637 0
0.956206 0.00063243 0
0.958154 0.000593486 0
0.960112 0.000578811 0
0.96207 0.000538812 0
0.964021 0.000525522 0
0.965956 0.000485108 0
0.967869 0.00047307 0
0.969753 0.000432887 0
0.971601 0.000421983 0
0.973407 0.000382654 0
0.975165 0.000372782 0
0.976871 0.000334884 0
0.978519 0.000325962 0
0.980108 0.000290005 0
0.981632 0.000281961 0
0.983089 0.000248374 0
0.984477 0.000241151 0
0.985795 0.000210265 0
0.987041 0.000203816 0
0.988217 0.000175869 0
0.989319 0.000170157 0
0.990352 0.00014531 0
0.991314 0.000140313 0
0.99221 0.000118737 0
0.993038 0.000114484 0
0.993801 9.66783e-05 0
0.994494 9.33686e-05 0
0.995096 8.12258e-05 0
0.99553 7.96331e-05 0
0.998205 -4.66671e-05 0
0.996504 -0.000109755 0
0.994835 -0.000186981 0
0.993144 -0.000280716 0
0.991387 -0.000386789 0
0.989524 -0.00051148 0
0.987525 -0.00064753 0
0.985359 -0.000805661 0
0.983005 -0.00097453 0
0.980441 -0.00116969 0
0.977653 -0.00137488 0
0.974626 -0.00161071 0
0.971354 -0.00185539 0
0.967833 -0.00213458 0
0.964066 -0.00242056 0
0.960057 -0.00274383 0
0.955824 -0.00307065 0
0.951381 -0.00343592 0
0.946758 -0.00380017 0
0.941984 -0.00420197 0
0.937097 -0.00459688 0
0.932139 -0.00502621 0
0.927159 -0.00544178 0
0.922209 -0.00588652 0
0.917342 -0.00631008 0
0.912615 -0.0067558 0
0.908086 -0.00717308 0
0.903812 -0.00760424 0
0.899846 -0.00800046 0
0.896243 -0.0084017 0
0.893049 -0.00876281 0
0.890312 -0.00911999 0
0.888067 -0.00943351 0
0.886352 -0.00973454 0
0.885188 -0.00999013 0
0.884603 -0.0102253 0
0.884607 -0.0104148 0
0.885214 -0.0105769 0
0.886423 -0.0106944 0
0.888237 -0.0107781 0
0.890643 -0.0108196 0
0.893637 -0.0108218 0
0.897196 -0.0107848 0
0.901306 -0.0107038 0
0.905941 -0.0105872 0
0.911078 -0.0104228 0
0.916686 -0.0102268 0
0.922737 -0.00998028 0
0.929197 -0.00970652 0
0.936034 -0.00938049 0
0.943211 -0.00903205 0
0.950695 -0.00863067 0
0.958447 -0.00821218 0
0.966432 -0.00774124 0
0.97461 -0.00725898 0
0.982946 -0.00672588 0
0.991402 -0.00618775 0
0.999942 -0.00560142 0
1.00853 -0.0050168 0
1.01712 -0.00438747 0
1.0257 -0.00376696 0
1.03421 -0.00310591 0
1.04263 -0.00246103 0
1.05092 -0.00178016 0
1.05906 -0.00112289 0
1.06701 -0.000434316 0
1.07474 0.000223275 0
1.08223 0.000907661 0
1.08945 0.0015539 0
1.09637 0.00222283 0
1.10297 0.0028468 0
1.10924 0.00349001 0
1.11514 0.00408187 0
1.12067 0.00469039 0
1.1258 0.00524168 0
1.13052 0.00580803 0
1.13482 0.00631181 0
1.13869 0.00683016 0
1.14212 0.00728112 0
1.14511 0.00774735 0
1.14764 0.00814184 0
1.14973 0.00855345 0
1.15136 0.00888943 0
1.15254 0.00924549 0
1.15327 0.0095224 0
1.15357 0.00982336 0
1.15343 0.0100419 0
1.15287 0.0102895 0
1.1519 0.0104516 0
1.15054 0.0106482 0
1.14879 0.0107566 0
1.14668 0.0109055 0
1.14422 0.0109636 0
1.14143 0.0110685 0
1.13833 0.01108 0
1.13494 0.0111448 0
1.13127 0.0111138 0
1.12737 0.0111424 0
1.12323 0.011073 0
1.11888 0.0110691 0
1.11435 0.0109653 0
1.10965 0.0109325 0
1.10481 0.0107983 0
1.09984 0.01074 0
1.09477 0.0105791 0
1.08961 0.0104985 0
1.08438 0.0103146 0
1.07909 0.0102146 0
1.07378 0.0100114 0
1.06844 0.00989482 0
1.06309 0.00967569 0
1.05775 0.00954533 0
1.05244 0.0093137 0
1.04715 0.0091723 0
1.04191 0.00893153 0
1.03672 0.00878182 0
1.0316 0.00853516 0
1.02655 0.00837986 0
1.02158 0.00813051 0
1.01669 0.00797231 0
1.0119 0.0077233 0
1.00722 0.00756477 0
1.00264 0.00731894 0
0.998167 0.00716255 0
0.993816 0.00692249 0
0.989586 0.00677046 0
0.985482 0.00653844 0
0.981508 0.0063927 0
0.977667 0.00617064 0
0.973963 0.00603279 0
0.9704 0.00582218 0
0.966979 0.00569338 0
0.963706 0.00549531 0
0.960581 0.00537631 0
0.95761 0.00519142 0
0.954792 0.00508248 0
0.952133 0.00491099 0
0.949632 0.00481194 0
0.947296 0.00465368 0
0.945122 0.00456394 0
0.943116 0.00441839 0
0.941276 0.00433699 0
0.939608 0.00420333 0
0.938108 0.00412902 0
0.936783 0.00400622 0
0.935626 0.00393752 0
0.934645 0.00382439 0
0.933832 0.00375971 0
0.933193 0.00365498 0
0.932721 0.00359267 0
0.93242 0.00349506 0
0.93228 0.00343353 0
0.932308 0.0033418 0
0.93249 0.00327958 0
0.932831 0.00319259 0
0.933318 0.00312843 0
0.933956 0.00304517 0
0.934728 0.00297803 0
0.935639 0.00289766 0
0.936673 0.0028268 0
0.937831 0.00274863 0
0.939097 0.00267362 0
0.940473 0.00259717 0
0.941941 0.00251786 0
0.943502 0.00244279 0
0.945139 0.00235934 0
0.94685 0.00228551 0
0.948621 0.00219834 0
0.950447 0.00212573 0
0.952315 0.00203551 0
0.954221 0.00196422 0
0.956151 0.00187181 0
0.9581 0.00180207 0
0.960057 0.00170847 0
0.962016 0.00164058 0
0.963967 0.0015469 0
0.965904 0.00148123 0
0.967817 0.00138861 0
0.969702 0.00132555 0
0.97155 0.00123517 0
0.973357 0.00117512 0
0.975117 0.00108807 0
0.976824 0.00103143 0
0.978475 0.000948708 0
0.980064 0.00089583 0
0.98159 0.000818313 0
0.983048 0.000769498 0
0.984439 0.000697885 0
0.985758 0.000653363 0
0.987007 0.000588175 0
0.988183 0.000548098 0
0.989289 0.000489683 0
0.990322 0.00045415 0
0.991288 0.00040278 0
0.992183 0.000371954 0
0.993014 0.000328192 0
0.993778 0.000302748 0
0.994474 0.000268743 0
0.995077 0.000251383 0
0.995513 0.00023503 0
0.998179 -7.80173e-05 0
0.996456 -0.000182172 0
0.994763 -0.000312568 0
0.99305 -0.000465928 0
0.991269 -0.000646494 0
0.989384 -0.000848963 0
0.98736 -0.0010821 0
0.985171 -0.00133731 0
0.982789 -0.00162816 0
0.9802 -0.00194168 0
0.977381 -0.00229637 0
0.974327 -0.002674 0
0.971024 -0.00309793 0
0.967474 -0.00354401 0
0.963675 -0.00404018 0
0.959639 -0.00455596 0
0.955375 -0.00512341 0
0.950907 -0.00570569 0
0.946257 -0.0063383 0
0.941462 -0.0069785 0
0.936555 -0.0076644 0
0.931582 -0.00834834 0
0.92659 -0.00907009 0
0.921633 -0.0097786 0
0.916763 -0.0105142 0
0.912039 -0.0112245 0
0.907518 -0.0119493 0
0.903254 -0.0126367 0
0.899307 -0.0133251 0
0.895724 -0.0139653 0
0.892559 -0.0145929 0
0.889848 -0.0151636 0
0.887639 -0.0157089 0
0.885957 -0.0161908 0
0.884835 -0.0166357 0
0.884288 -0.0170133 0
0.884338 -0.0173438 0
0.884986 -0.0176052 0
0.886244 -0.0178111 0
0.8881 -0.0179477 0
0.890558 -0.0180218 0
0.893595 -0.0180282 0
0.897205 -0.0179662 0
0.901359 -0.0178391 0
0.906043 -0.0176393 0
0.911223 -0.017378 0
0.916878 -0.0170408 0
0.92297 -0.0166467 0
0.929475 -0.0161751 0
0.93635 -0.0156521 0
0.943568 -0.0150515 0
0.951086 -0.014406 0
0.958873 -0.0136846 0
0.966887 -0.0129257 0
0.975095 -0.0120945 0
0.983455 -0.0112343 0
0.991934 -0.0103067 0
1.00049 -0.00935987 0
1.00909 -0.00835208 0
1.0177 -0.00733549 0
1.02628 -0.00626557 0
1.03479 -0.00519798 0
1.04321 -0.00408544 0
1.0515 -0.00298671 0
1.05963 -0.00185179 0
1.06756 -0.00074222 0
1.07528 0.000394844 0
1.08275 0.00149529 0
1.08994 0.002615 0
1.09684 0.00368735 0
1.10341 0.0047716 0
1.10965 0.0057985 0
1.11552 0.0068311 0
1.121 0.00779732 0
1.1261 0.00876448 0
1.13078 0.00965725 0
1.13504 0.0105478 0
1.13887 0.0113571 0
1.14226 0.0121627 0
1.1452 0.0128812 0
1.14769 0.0135963 0
1.14973 0.0142195 0
1.15132 0.0148413 0
1.15246 0.0153672 0
1.15315 0.0158953 0
1.1534 0.0163244 0
1.15323 0.0167605 0
1.15263 0.0170952 0
1.15163 0.0174429 0
1.15023 0.0176872 0
1.14845 0.0179513 0
1.14631 0.0181105 0
1.14382 0.0182969 0
1.14101 0.0183769 0
1.13789 0.0184919 0
1.13447 0.0184994 0
1.13079 0.0185495 0
1.12687 0.0184912 0
1.12272 0.0184829 0
1.11836 0.0183655 0
1.11382 0.0183051 0
1.10911 0.0181351 0
1.10427 0.0180285 0
1.09929 0.0178121 0
1.09422 0.0176648 0
1.08906 0.0174081 0
1.08383 0.0172255 0
1.07855 0.0169342 0
1.07323 0.0167212 0
1.0679 0.016401 0
1.06256 0.0161625 0
1.05723 0.0158188 0
1.05192 0.0155597 0
1.04665 0.015198 0
1.04142 0.0149229 0
1.03624 0.0145484 0
1.03113 0.0142622 0
1.02609 0.0138802 0
1.02113 0.0135874 0
1.01626 0.0132028 0
1.01149 0.012908 0
1.00681 0.0125258 0
1.00225 0.0122332 0
0.997794 0.0118577 0
0.993457 0.0115714 0
0.989242 0.0112066 0
0.985152 0.0109302 0
0.981193 0.0105796 0
0.977365 0.010316 0
0.973676 0.00998229 0
0.970126 0.00973386 0
0.96672 0.00941925 0
0.963458 0.00918764 0
0.960348 0.00889349 0
0.957387 0.00867959 0
0.954583 0.00840656 0
0.951933 0.00821052 0
0.949446 0.00795856 0
0.947117 0.0077798 0
0.944955 0.00754826 0
0.942955 0.00738557 0
0.941127 0.00717321 0
0.939463 0.00702484 0
0.937974 0.00683 0
0.93665 0.00669378 0
0.935504 0.00651447 0
0.934523 0.00638795 0
0.933719 0.00622198 0
0.93308 0.00610256 0
0.932616 0.00594768 0
0.932312 0.00583276 0
0.93218 0.00568675 0
0.932204 0.00557388 0
0.932393 0.00543467 0
0.932729 0.00532164 0
0.933223 0.00518735 0
0.933854 0.00507229 0
0.934633 0.00494136 0
0.935537 0.00482281 0
0.936576 0.00469398 0
0.937727 0.00457092 0
0.938999 0.00444325 0
0.940368 0.00431514 0
0.941841 0.00418805 0
0.943395 0.00405478 0
0.945036 0.00392802 0
0.946742 0.00378993 0
0.948516 0.00366351 0
0.950337 0.00352133 0
0.952209 0.00339556 0
0.954111 0.00325032 0
0.956044 0.00312571 0
0.957991 0.00297875 0
0.95995 0.00285599 0
0.961908 0.00270881 0
0.963861 0.00258871 0
0.965798 0.00244294 0
0.967714 0.00232641 0
0.969599 0.00218372 0
0.97145 0.00207167 0
0.973259 0.0019337 0
0.975021 0.00182703 0
0.976731 0.00169531 0
0.978384 0.00159486 0
0.979977 0.00147075 0
0.981505 0.00137726 0
0.982968 0.00126191 0
0.984361 0.00117596 0
0.985685 0.00107026 0
0.986936 0.000992266 0
0.988118 0.000896828 0
0.989225 0.000827077 0
0.990265 0.000742319 0
0.991231 0.000681036 0
0.992133 0.000607461 0
0.992966 0.000555263 0
0.993735 0.000494536 0
0.994432 0.000453968 0
0.99504 0.000412545 0
0.995476 0.000393033 0
0.998142 -0.000108887 0
0.996382 -0.000255408 0
0.994656 -0.00043622 0
0.992908 -0.000653165 0
0.991095 -0.0009022 0
0.989173 -0.00118993 0
0.987115 -0.00151003 0
0.984886 -0.00187401 0
0.982469 -0.00227194 0
0.979836 -0.00272024 0
0.976978 -0.00320423 0
0.973877 -0.0037451 0
0.970533 -0.00432249 0
0.966935 -0.004962 0
0.963094 -0.00563691 0
0.95901 -0.00637668 0
0.954706 -0.00714786 0
0.950195 -0.00798311 0
0.945511 -0.00884236 0
0.940679 -0.00976065 0
0.935745 -0.010692 0
0.930748 -0.0116729 0
0.925739 -0.0126529 0
0.920771 -0.013669 0
0.915898 -0.014668 0
0.911178 -0.0156868 0
0.906666 -0.0166714 0
0.902423 -0.0176578 0
0.898498 -0.0185938 0
0.89495 -0.0195132 0
0.891819 -0.0203676 0
0.889157 -0.0211881 0
0.886992 -0.0219318 0
0.885368 -0.0226259 0
0.884299 -0.0232345 0
0.883818 -0.0237797 0
0.883926 -0.0242339 0
0.884646 -0.0246133 0
0.885966 -0.0248985 0
0.887898 -0.0250996 0
0.890419 -0.0252057 0
0.893532 -0.0252202 0
0.897207 -0.0251407 0
0.901437 -0.0249639 0
0.906186 -0.0246956 0
0.911439 -0.024326 0
0.917157 -0.023869 0
0.923319 -0.0233087 0
0.929882 -0.0226663 0
0.936822 -0.0219207 0
0.944093 -0.0210999 0
0.951669 -0.0201783 0
0.959504 -0.0191901 0
0.967567 -0.0181057 0
0.975815 -0.0169651 0
0.984214 -0.0157352 0
0.992723 -0.0144611 0
1.00131 -0.0131066 0
1.00993 -0.0117216 0
1.01855 -0.0102669 0
1.02714 -0.00879627 0
1.03566 -0.00726809 0
1.04408 -0.00573944 0
1.05236 -0.00416604 0
1.06047 -0.00260795 0
1.06839 -0.00101809 0
1.07608 0.000540861 0
1.08352 0.002119 0
1.09068 0.00365123 0
1.09754 0.00519103 0
1.10407 0.00667091 0
1.11025 0.00814815 0
1.11607 0.00955278 0
1.1215 0.0109464 0
1.12654 0.0122562 0
1.13116 0.0135486 0
1.13536 0.0147477 0
1.13912 0.0159253 0
1.14244 0.0170018 0
1.14532 0.0180551 0
1.14775 0.0190009 0
1.14972 0.019924 0
1.15124 0.0207351 0
1.15232 0.021526 0
1.15295 0.0222014 0
1.15315 0.0228612 0
1.15291 0.0234033 0
1.15226 0.0239359 0
1.1512 0.0243495 0
1.14976 0.024761 0
1.14793 0.0250527 0
1.14575 0.0253506 0
1.14322 0.0255286 0
1.14037 0.0257216 0
1.13721 0.0257947 0
1.13377 0.0258919 0
1.13006 0.0258695 0
1.12611 0.0258801 0
1.12194 0.0257716 0
1.11757 0.0257044 0
1.11301 0.0255189 0
1.1083 0.0253827 0
1.10344 0.0251289 0
1.09847 0.0249317 0
1.09339 0.0246182 0
1.08823 0.0243675 0
1.083 0.0240023 0
1.07773 0.0237055 0
1.07242 0.0232963 0
1.06709 0.0229604 0
1.06176 0.0225148 0
1.05645 0.0221466 0
1.05115 0.0216721 0
1.04589 0.0212784 0
1.04068 0.0207824 0
1.03552 0.0203698 0
1.03042 0.0198595 0
1.0254 0.0194348 0
1.02047 0.0189171 0
1.01562 0.0184868 0
1.01086 0.0179687 0
1.00621 0.017539 0
1.00167 0.0170269 0
0.997233 0.0166037 0
0.992919 0.0161034 0
0.988725 0.0156921 0
0.984658 0.0152087 0
0.980718 0.0148139 0
0.976914 0.0143518 0
0.973244 0.0139773 0
0.969717 0.01354 0
0.966329 0.0131886 0
0.96309 0.0127784 0
0.959995 0.0124519 0
0.957056 0.0120702 0
0.954266 0.0117694 0
0.951637 0.0114167 0
0.949162 0.0111413 0
0.946852 0.010817 0
0.9447 0.0105658 0
0.942719 0.0102685 0
0.940898 0.0100395 0
0.939251 0.00976699 0
0.937766 0.00955745 0
0.936459 0.00930721 0
0.935314 0.00911395 0
0.934348 0.00888292 0
0.933544 0.00870248 0
0.932918 0.00848746 0
0.93245 0.00831625 0
0.932159 0.00811403 0
0.932022 0.00794857 0
0.932057 0.00775606 0
0.932239 0.00759313 0
0.932585 0.00740753 0
0.933071 0.00724431 0
0.933711 0.00706318 0
0.93448 0.00689734 0
0.935393 0.00671868 0
0.936422 0.00654849 0
0.937581 0.0063708 0
0.938843 0.00619512 0
0.940219 0.00601739 0
0.941682 0.00583573 0
0.943243 0.00565743 0
0.944874 0.00546987 0
0.946586 0.00529095 0
0.948352 0.00509814 0
0.950179 0.00491894 0
0.952044 0.004722 0
0.953951 0.00454323 0
0.955879 0.00434368 0
0.957831 0.00416633 0
0.959787 0.00396601 0
0.961749 0.0037913 0
0.963701 0.00359224 0
0.965641 0.00342153 0
0.967558 0.00322589 0
0.969447 0.00306061 0
0.9713 0.00287056 0
0.973112 0.00271213 0
0.974878 0.00252973 0
0.976591 0.00237952 0
0.97825 0.00220667 0
0.979846 0.00206587 0
0.981381 0.00190423 0
0.982847 0.00177387 0
0.984247 0.00162476 0
0.985574 0.00150562 0
0.986833 0.00137001 0
0.988017 0.00126263 0
0.989134 0.00114118 0
0.990175 0.0010459 0
0.991151 0.000939115 0
0.992055 0.00085644 0
0.992896 0.000765468 0
0.993668 0.000697228 0
0.994372 0.00062653 0
0.994982 0.000579978 0
0.995424 0.000545977 0
0.998091 -0.000140077 0
0.996285 -0.000327458 0
0.994512 -0.000561107 0
0.992721 -0.000837344 0
0.990861 -0.00116031 0
0.988896 -0.00152532 0
0.986787 -0.00194163 0
0.984511 -0.00240195 0
0.982038 -0.00292057 0
0.979355 -0.00348617 0
0.976438 -0.0041178 0
0.973283 -0.00479897 0
0.969875 -0.00555306 0
0.966222 -0.0063574 0
0.962317 -0.00723911 0
0.958179 -0.00816866 0
0.953814 -0.00917614 0
0.949253 -0.010225 0
0.944515 -0.0113473 0
0.939642 -0.0124999 0
0.934667 -0.0137162 0
0.929641 -0.0149471 0
0.924609 -0.0162267 0
0.919626 -0.0175019 0
0.914748 -0.0188065 0
0.910031 -0.0200855 0
0.905536 -0.0213719 0
0.901313 -0.0226112 0
0.897425 -0.0238351 0
0.893914 -0.0249916 0
0.890838 -0.0261104 0
0.888228 -0.0271444 0
0.886133 -0.0281203 0
0.884573 -0.0289974 0
0.883587 -0.0297985 0
0.883179 -0.0304906 0
0.883379 -0.0310915 0
0.884178 -0.0315764 0
0.885595 -0.0319578 0
0.887611 -0.0322193 0
0.890233 -0.0323673 0
0.893432 -0.0323939 0
0.897208 -0.0322995 0
0.901524 -0.0320843 0
0.906372 -0.0317427 0
0.91171 -0.0312829 0
0.917523 -0.0306937 0
0.923766 -0.0299907 0
0.930419 -0.0291579 0
0.937434 -0.0282181 0
0.944788 -0.0271508 0
0.952431 -0.0259855 0
0.960338 -0.0246979 0
0.968459 -0.0233237 0
0.976766 -0.0218355 0
0.985212 -0.0202746 0
0.993767 -0.0186108 0
1.00239 -0.0168904 0
1.01104 -0.0150806 0
1.01968 -0.0132321 0
1.02828 -0.0113098 0
1.0368 -0.00936816 0
1.04522 -0.00736939 0
1.05349 -0.00537138 0
1.06158 -0.00333358 0
1.06947 -0.00131663 0
1.07713 0.000722965 0
1.08453 0.00272216 0
1.09164 0.00472781 0
1.09844 0.00667464 0
1.10491 0.0086133 0
1.11103 0.0104763 0
1.11678 0.0123187 0
1.12214 0.0140705 0
1.1271 0.0157916 0
1.13164 0.0174096 0
1.13575 0.0189896 0
1.13943 0.0204561 0
1.14267 0.0218803 0
1.14546 0.0231828 0
1.1478 0.0244415 0
1.14968 0.0255726 0
1.15112 0.0266612 0
1.15211 0.0276181 0
1.15266 0.0285363 0
1.15278 0.0293204 0
1.15247 0.0300718 0
1.15174 0.0306881 0
1.15062 0.0312793 0
1.1491 0.0317356 0
1.14722 0.0321757 0
1.14497 0.0324816 0
1.14239 0.0327813 0
1.13949 0.032948 0
1.13629 0.0331187 0
1.13281 0.0331581 0
1.12907 0.0332118 0
1.12509 0.0331358 0
1.12089 0.0330841 0
1.11649 0.0329046 0
1.11192 0.0327587 0
1.10719 0.0324871 0
1.10233 0.0322577 0
1.09735 0.0319049 0
1.09227 0.0316022 0
1.08711 0.0311785 0
1.08189 0.0308119 0
1.07662 0.0303274 0
1.07132 0.0299061 0
1.06601 0.0293704 0
1.0607 0.0289033 0
1.05539 0.0283259 0
1.05012 0.0278218 0
1.04488 0.0272121 0
1.03969 0.0266796 0
1.03455 0.0260468 0
1.02948 0.0254946 0
1.02449 0.0248479 0
1.01957 0.0242845 0
1.01475 0.0236327 0
1.01003 0.0230664 0
1.0054 0.0224179 0
1.00089 0.0218566 0
0.996484 0.0212192 0